   2   2   1   0
  0.1947597E+02  0.3804942E-09  0.3804942E-09  0.3804942E-09  0.5000000E-15
  1.000000000000000E-004
  CAR 
 unknown system                          
     21.24688413     -7.50155316  301      5.62989450      1.00000000
     -7.502  0.0000E+00  0.0000E+00  0.0000E+00  0.0000E+00
     -7.406  0.0000E+00  0.0000E+00  0.0000E+00  0.0000E+00
     -7.310  0.0000E+00  0.0000E+00  0.0000E+00  0.0000E+00
     -7.214  0.0000E+00  0.0000E+00  0.0000E+00  0.0000E+00
     -7.118  0.0000E+00  0.0000E+00  0.0000E+00  0.0000E+00
     -7.022  0.0000E+00  0.0000E+00  0.0000E+00  0.0000E+00
     -6.927  0.0000E+00  0.0000E+00  0.0000E+00  0.0000E+00
     -6.831  0.0000E+00  0.0000E+00  0.0000E+00  0.0000E+00
     -6.735  0.0000E+00  0.0000E+00  0.0000E+00  0.0000E+00
     -6.639  0.0000E+00  0.0000E+00  0.0000E+00  0.0000E+00
     -6.543  0.0000E+00  0.0000E+00  0.0000E+00  0.0000E+00
     -6.447  0.0000E+00  0.0000E+00  0.0000E+00  0.0000E+00
     -6.352  0.0000E+00  0.0000E+00  0.0000E+00  0.0000E+00
     -6.256  0.0000E+00  0.0000E+00  0.0000E+00  0.0000E+00
     -6.160  0.1787E-04  0.1794E-04  0.2071E-06  0.2084E-06
     -6.064  0.2521E-03  0.2523E-03  0.1097E-04  0.1099E-04
     -5.968  0.7577E-03  0.7582E-03  0.5719E-04  0.5724E-04
     -5.872  0.8748E-03  0.8748E-03  0.1441E-03  0.1442E-03
     -5.777  0.9999E-03  0.1000E-02  0.2329E-03  0.2330E-03
     -5.681  0.1160E-02  0.1160E-02  0.3363E-03  0.3364E-03
     -5.585  0.1330E-02  0.1330E-02  0.4555E-03  0.4556E-03
     -5.489  0.1510E-02  0.1510E-02  0.5916E-03  0.5917E-03
     -5.393  0.1655E-02  0.1655E-02  0.7437E-03  0.7438E-03
     -5.298  0.1741E-02  0.1741E-02  0.9069E-03  0.9070E-03
     -5.202  0.1801E-02  0.1801E-02  0.1076E-02  0.1076E-02
     -5.106  0.1919E-02  0.1919E-02  0.1254E-02  0.1254E-02
     -5.010  0.2043E-02  0.2043E-02  0.1444E-02  0.1444E-02
     -4.914  0.2171E-02  0.2171E-02  0.1646E-02  0.1646E-02
     -4.818  0.2303E-02  0.2303E-02  0.1860E-02  0.1860E-02
     -4.723  0.2440E-02  0.2440E-02  0.2087E-02  0.2088E-02
     -4.627  0.2582E-02  0.2582E-02  0.2328E-02  0.2328E-02
     -4.531  0.2703E-02  0.2703E-02  0.2581E-02  0.2581E-02
     -4.435  0.2865E-02  0.2865E-02  0.2847E-02  0.2848E-02
     -4.339  0.3047E-02  0.3048E-02  0.3131E-02  0.3131E-02
     -4.243  0.3252E-02  0.3252E-02  0.3432E-02  0.3432E-02
     -4.148  0.3636E-02  0.3636E-02  0.3759E-02  0.3759E-02
     -4.052  0.4199E-02  0.4199E-02  0.4136E-02  0.4136E-02
     -3.956  0.4502E-02  0.4502E-02  0.4555E-02  0.4555E-02
     -3.860  0.4546E-02  0.4546E-02  0.4991E-02  0.4991E-02
     -3.764  0.4324E-02  0.4324E-02  0.5418E-02  0.5418E-02
     -3.668  0.4410E-02  0.4410E-02  0.5824E-02  0.5825E-02
     -3.573  0.4662E-02  0.4662E-02  0.6265E-02  0.6265E-02
     -3.477  0.4259E-02  0.4259E-02  0.6695E-02  0.6696E-02
     -3.381  0.3958E-02  0.3957E-02  0.7089E-02  0.7089E-02
     -3.285  0.3714E-02  0.3714E-02  0.7456E-02  0.7456E-02
     -3.189  0.3527E-02  0.3527E-02  0.7802E-02  0.7802E-02
     -3.093  0.3421E-02  0.3420E-02  0.8134E-02  0.8134E-02
     -2.998  0.3348E-02  0.3348E-02  0.8459E-02  0.8459E-02
     -2.902  0.3388E-02  0.3388E-02  0.8778E-02  0.8778E-02
     -2.806  0.3403E-02  0.3403E-02  0.9105E-02  0.9105E-02
     -2.710  0.3176E-02  0.3176E-02  0.9422E-02  0.9423E-02
     -2.614  0.2706E-02  0.2706E-02  0.9706E-02  0.9706E-02
     -2.518  0.1191E-02  0.1191E-02  0.9954E-02  0.9954E-02
     -2.423  0.6787E-03  0.6783E-03  0.1004E-01  0.1004E-01
     -2.327  0.2869E-03  0.2866E-03  0.1009E-01  0.1009E-01
     -2.231  0.1553E-04  0.1535E-04  0.1010E-01  0.1010E-01
     -2.135  0.0000E+00  0.0000E+00  0.1010E-01  0.1010E-01
     -2.039  0.0000E+00  0.0000E+00  0.1010E-01  0.1010E-01
     -1.944  0.0000E+00  0.0000E+00  0.1010E-01  0.1010E-01
     -1.848  0.1805E-03  0.1807E-03  0.1011E-01  0.1011E-01
     -1.752  0.4427E-03  0.4429E-03  0.1014E-01  0.1014E-01
     -1.656  0.7716E-03  0.7719E-03  0.1020E-01  0.1020E-01
     -1.560  0.1167E-02  0.1167E-02  0.1029E-01  0.1029E-01
     -1.464  0.2552E-02  0.2553E-02  0.1045E-01  0.1045E-01
     -1.369  0.3318E-02  0.3318E-02  0.1074E-01  0.1074E-01
     -1.273  0.3859E-02  0.3859E-02  0.1108E-01  0.1108E-01
     -1.177  0.4176E-02  0.4176E-02  0.1147E-01  0.1147E-01
     -1.081  0.5438E-02  0.5440E-02  0.1190E-01  0.1190E-01
     -0.985  0.7884E-02  0.7885E-02  0.1256E-01  0.1256E-01
     -0.889  0.7463E-02  0.7461E-02  0.1332E-01  0.1332E-01
     -0.794  0.5843E-02  0.5841E-02  0.1396E-01  0.1396E-01
     -0.698  0.4344E-02  0.4343E-02  0.1443E-01  0.1443E-01
     -0.602  0.3772E-02  0.3772E-02  0.1482E-01  0.1482E-01
     -0.506  0.3349E-02  0.3348E-02  0.1516E-01  0.1516E-01
     -0.410  0.3072E-02  0.3072E-02  0.1546E-01  0.1546E-01
     -0.314  0.2872E-02  0.2872E-02  0.1575E-01  0.1575E-01
     -0.219  0.2707E-02  0.2707E-02  0.1601E-01  0.1601E-01
     -0.123  0.2556E-02  0.2556E-02  0.1627E-01  0.1627E-01
     -0.027  0.2415E-02  0.2415E-02  0.1650E-01  0.1650E-01
      0.069  0.2278E-02  0.2278E-02  0.1673E-01  0.1673E-01
      0.165  0.2149E-02  0.2149E-02  0.1694E-01  0.1694E-01
      0.261  0.2029E-02  0.2029E-02  0.1714E-01  0.1714E-01
      0.356  0.1916E-02  0.1916E-02  0.1733E-01  0.1733E-01
      0.452  0.1755E-02  0.1755E-02  0.1751E-01  0.1751E-01
      0.548  0.1563E-02  0.1563E-02  0.1767E-01  0.1767E-01
      0.644  0.1429E-02  0.1428E-02  0.1781E-01  0.1781E-01
      0.740  0.1352E-02  0.1352E-02  0.1794E-01  0.1794E-01
      0.835  0.1311E-02  0.1311E-02  0.1807E-01  0.1807E-01
      0.931  0.1273E-02  0.1273E-02  0.1819E-01  0.1819E-01
      1.027  0.1235E-02  0.1235E-02  0.1831E-01  0.1831E-01
      1.123  0.1200E-02  0.1200E-02  0.1843E-01  0.1843E-01
      1.219  0.1164E-02  0.1164E-02  0.1854E-01  0.1854E-01
      1.315  0.1129E-02  0.1128E-02  0.1865E-01  0.1865E-01
      1.410  0.1092E-02  0.1092E-02  0.1876E-01  0.1876E-01
      1.506  0.2081E-02  0.2082E-02  0.1891E-01  0.1891E-01
      1.602  0.5995E-02  0.5996E-02  0.1931E-01  0.1931E-01
      1.698  0.6032E-02  0.6032E-02  0.1986E-01  0.1986E-01
      1.794  0.6470E-02  0.6471E-02  0.2046E-01  0.2046E-01
      1.890  0.6364E-02  0.6364E-02  0.2108E-01  0.2108E-01
      1.985  0.5743E-02  0.5742E-02  0.2167E-01  0.2167E-01
      2.081  0.6549E-02  0.6546E-02  0.2224E-01  0.2224E-01
      2.177  0.5109E-02  0.5109E-02  0.2275E-01  0.2275E-01
      2.273  0.5053E-02  0.5053E-02  0.2324E-01  0.2324E-01
      2.369  0.4977E-02  0.4977E-02  0.2372E-01  0.2372E-01
      2.465  0.4882E-02  0.4882E-02  0.2419E-01  0.2419E-01
      2.560  0.8381E-02  0.8385E-02  0.2475E-01  0.2475E-01
      2.656  0.6467E-02  0.6467E-02  0.2549E-01  0.2549E-01
      2.752  0.6981E-02  0.6982E-02  0.2613E-01  0.2613E-01
      2.848  0.7735E-02  0.7735E-02  0.2683E-01  0.2683E-01
      2.944  0.9641E-02  0.9638E-02  0.2766E-01  0.2766E-01
      3.040  0.7825E-02  0.7825E-02  0.2843E-01  0.2843E-01
      3.135  0.7726E-02  0.7726E-02  0.2918E-01  0.2918E-01
      3.231  0.7629E-02  0.7629E-02  0.2991E-01  0.2991E-01
      3.327  0.7507E-02  0.7507E-02  0.3064E-01  0.3064E-01
      3.423  0.7594E-02  0.7594E-02  0.3136E-01  0.3136E-01
      3.519  0.7537E-02  0.7537E-02  0.3209E-01  0.3209E-01
      3.615  0.7468E-02  0.7468E-02  0.3281E-01  0.3281E-01
      3.710  0.7354E-02  0.7354E-02  0.3352E-01  0.3352E-01
      3.806  0.7167E-02  0.7167E-02  0.3421E-01  0.3421E-01
      3.902  0.6995E-02  0.6995E-02  0.3489E-01  0.3489E-01
      3.998  0.6812E-02  0.6812E-02  0.3555E-01  0.3555E-01
      4.094  0.6894E-02  0.6894E-02  0.3621E-01  0.3621E-01
      4.189  0.6728E-02  0.6727E-02  0.3686E-01  0.3686E-01
      4.285  0.6169E-02  0.6169E-02  0.3748E-01  0.3748E-01
      4.381  0.5367E-02  0.5366E-02  0.3804E-01  0.3804E-01
      4.477  0.4321E-02  0.4320E-02  0.3850E-01  0.3850E-01
      4.573  0.3683E-02  0.3683E-02  0.3889E-01  0.3889E-01
      4.669  0.2898E-02  0.2897E-02  0.3920E-01  0.3920E-01
      4.764  0.2356E-02  0.2355E-02  0.3945E-01  0.3945E-01
      4.860  0.2060E-02  0.2059E-02  0.3966E-01  0.3966E-01
      4.956  0.1807E-02  0.1807E-02  0.3985E-01  0.3985E-01
      5.052  0.1598E-02  0.1598E-02  0.4001E-01  0.4001E-01
      5.148  0.1433E-02  0.1433E-02  0.4016E-01  0.4016E-01
      5.244  0.1252E-02  0.1251E-02  0.4029E-01  0.4029E-01
      5.339  0.4901E-03  0.4898E-03  0.4036E-01  0.4036E-01
      5.435  0.2140E-03  0.2138E-03  0.4039E-01  0.4039E-01
      5.531  0.5068E-04  0.5058E-04  0.4040E-01  0.4040E-01
      5.627  0.0000E+00  0.0000E+00  0.4040E-01  0.4040E-01
      5.723  0.0000E+00  0.0000E+00  0.4040E-01  0.4040E-01
      5.819  0.0000E+00  0.0000E+00  0.4040E-01  0.4040E-01
      5.914  0.0000E+00  0.0000E+00  0.4040E-01  0.4040E-01
      6.010  0.0000E+00  0.0000E+00  0.4040E-01  0.4040E-01
      6.106  0.0000E+00  0.0000E+00  0.4040E-01  0.4040E-01
      6.202  0.0000E+00  0.0000E+00  0.4040E-01  0.4040E-01
      6.298  0.2363E-03  0.2364E-03  0.4041E-01  0.4041E-01
      6.394  0.4998E-03  0.4999E-03  0.4045E-01  0.4045E-01
      6.489  0.6692E-03  0.6693E-03  0.4050E-01  0.4050E-01
      6.585  0.8936E-03  0.8937E-03  0.4058E-01  0.4058E-01
      6.681  0.1188E-02  0.1188E-02  0.4068E-01  0.4068E-01
      6.777  0.1418E-02  0.1418E-02  0.4080E-01  0.4080E-01
      6.873  0.1620E-02  0.1620E-02  0.4095E-01  0.4095E-01
      6.968  0.1920E-02  0.1920E-02  0.4112E-01  0.4112E-01
      7.064  0.2219E-02  0.2219E-02  0.4132E-01  0.4132E-01
      7.160  0.2569E-02  0.2569E-02  0.4154E-01  0.4154E-01
      7.256  0.3118E-02  0.3118E-02  0.4181E-01  0.4182E-01
      7.352  0.3798E-02  0.3798E-02  0.4215E-01  0.4215E-01
      7.448  0.4610E-02  0.4610E-02  0.4255E-01  0.4255E-01
      7.543  0.5651E-02  0.5651E-02  0.4304E-01  0.4304E-01
      7.639  0.7161E-02  0.7162E-02  0.4365E-01  0.4365E-01
      7.735  0.9009E-02  0.9010E-02  0.4442E-01  0.4442E-01
      7.831  0.9848E-02  0.9849E-02  0.4534E-01  0.4534E-01
      7.927  0.1035E-01  0.1035E-01  0.4630E-01  0.4630E-01
      8.023  0.1042E-01  0.1042E-01  0.4731E-01  0.4731E-01
      8.118  0.9858E-02  0.9858E-02  0.4828E-01  0.4828E-01
      8.214  0.9560E-02  0.9560E-02  0.4921E-01  0.4921E-01
      8.310  0.8131E-02  0.8130E-02  0.5005E-01  0.5005E-01
      8.406  0.6264E-02  0.6263E-02  0.5078E-01  0.5078E-01
      8.502  0.4957E-02  0.4956E-02  0.5132E-01  0.5132E-01
      8.598  0.3671E-02  0.3670E-02  0.5173E-01  0.5173E-01
      8.693  0.2565E-02  0.2566E-02  0.5202E-01  0.5202E-01
      8.789  0.3276E-02  0.3276E-02  0.5230E-01  0.5230E-01
      8.885  0.4077E-02  0.4077E-02  0.5265E-01  0.5265E-01
      8.981  0.4943E-02  0.4944E-02  0.5308E-01  0.5308E-01
      9.077  0.6623E-02  0.6624E-02  0.5362E-01  0.5362E-01
      9.173  0.1086E-01  0.1086E-01  0.5445E-01  0.5445E-01
      9.268  0.1582E-01  0.1582E-01  0.5572E-01  0.5572E-01
      9.364  0.1676E-01  0.1676E-01  0.5739E-01  0.5739E-01
      9.460  0.1354E-01  0.1352E-01  0.5899E-01  0.5899E-01
      9.556  0.7100E-02  0.7100E-02  0.5978E-01  0.5978E-01
      9.652  0.6913E-02  0.6913E-02  0.6045E-01  0.6045E-01
      9.748  0.6868E-02  0.6868E-02  0.6111E-01  0.6111E-01
      9.843  0.6679E-02  0.6679E-02  0.6176E-01  0.6176E-01
      9.939  0.6290E-02  0.6290E-02  0.6239E-01  0.6239E-01
     10.035  0.5764E-02  0.5764E-02  0.6297E-01  0.6297E-01
     10.131  0.5125E-02  0.5125E-02  0.6349E-01  0.6349E-01
     10.227  0.4893E-02  0.4893E-02  0.6396E-01  0.6396E-01
     10.322  0.4958E-02  0.4958E-02  0.6443E-01  0.6443E-01
     10.418  0.4837E-02  0.4837E-02  0.6490E-01  0.6490E-01
     10.514  0.4623E-02  0.4623E-02  0.6538E-01  0.6538E-01
     10.610  0.4398E-02  0.4398E-02  0.6582E-01  0.6582E-01
     10.706  0.3971E-02  0.3971E-02  0.6622E-01  0.6622E-01
     10.802  0.3677E-02  0.3677E-02  0.6659E-01  0.6659E-01
     10.897  0.3515E-02  0.3514E-02  0.6693E-01  0.6693E-01
     10.993  0.3485E-02  0.3485E-02  0.6727E-01  0.6727E-01
     11.089  0.5691E-02  0.5693E-02  0.6765E-01  0.6765E-01
     11.185  0.6856E-02  0.6855E-02  0.6829E-01  0.6829E-01
     11.281  0.6628E-02  0.6628E-02  0.6899E-01  0.6899E-01
     11.377  0.6115E-02  0.6115E-02  0.6962E-01  0.6962E-01
     11.472  0.5838E-02  0.5838E-02  0.7019E-01  0.7019E-01
     11.568  0.5844E-02  0.5844E-02  0.7075E-01  0.7075E-01
     11.664  0.6131E-02  0.6132E-02  0.7132E-01  0.7132E-01
     11.760  0.6748E-02  0.6748E-02  0.7194E-01  0.7194E-01
     11.856  0.7669E-02  0.7670E-02  0.7262E-01  0.7263E-01
     11.952  0.8555E-02  0.8556E-02  0.7341E-01  0.7341E-01
     12.047  0.9120E-02  0.9120E-02  0.7426E-01  0.7426E-01
     12.143  0.8544E-02  0.8537E-02  0.7514E-01  0.7514E-01
     12.239  0.6011E-02  0.6011E-02  0.7577E-01  0.7577E-01
     12.335  0.5786E-02  0.5786E-02  0.7633E-01  0.7633E-01
     12.431  0.5884E-02  0.5884E-02  0.7689E-01  0.7689E-01
     12.527  0.5866E-02  0.5866E-02  0.7746E-01  0.7746E-01
     12.622  0.5770E-02  0.5770E-02  0.7801E-01  0.7801E-01
     12.718  0.5645E-02  0.5645E-02  0.7856E-01  0.7856E-01
     12.814  0.5532E-02  0.5532E-02  0.7910E-01  0.7910E-01
     12.910  0.5453E-02  0.5453E-02  0.7962E-01  0.7962E-01
     13.006  0.5332E-02  0.5332E-02  0.8014E-01  0.8014E-01
     13.101  0.5184E-02  0.5184E-02  0.8064E-01  0.8064E-01
     13.197  0.5035E-02  0.5035E-02  0.8113E-01  0.8113E-01
     13.293  0.4891E-02  0.4891E-02  0.8161E-01  0.8161E-01
     13.389  0.4809E-02  0.4809E-02  0.8207E-01  0.8207E-01
     13.485  0.5086E-02  0.5086E-02  0.8255E-01  0.8255E-01
     13.581  0.5014E-02  0.5014E-02  0.8303E-01  0.8303E-01
     13.676  0.4748E-02  0.4748E-02  0.8350E-01  0.8350E-01
     13.772  0.4641E-02  0.4641E-02  0.8394E-01  0.8394E-01
     13.868  0.4877E-02  0.4877E-02  0.8440E-01  0.8440E-01
     13.964  0.6288E-02  0.6288E-02  0.8493E-01  0.8493E-01
     14.060  0.7407E-02  0.7408E-02  0.8559E-01  0.8559E-01
     14.156  0.7154E-02  0.7154E-02  0.8627E-01  0.8627E-01
     14.251  0.7292E-02  0.7292E-02  0.8697E-01  0.8697E-01
     14.347  0.7655E-02  0.7655E-02  0.8768E-01  0.8768E-01
     14.443  0.8063E-02  0.8063E-02  0.8844E-01  0.8844E-01
     14.539  0.7896E-02  0.7896E-02  0.8921E-01  0.8921E-01
     14.635  0.1112E-01  0.1111E-01  0.9019E-01  0.9019E-01
     14.731  0.8689E-02  0.8688E-02  0.9112E-01  0.9112E-01
     14.826  0.8183E-02  0.8183E-02  0.9192E-01  0.9192E-01
     14.922  0.7784E-02  0.7784E-02  0.9269E-01  0.9269E-01
     15.018  0.7404E-02  0.7404E-02  0.9341E-01  0.9341E-01
     15.114  0.7515E-02  0.7515E-02  0.9412E-01  0.9412E-01
     15.210  0.7639E-02  0.7639E-02  0.9485E-01  0.9485E-01
     15.306  0.7593E-02  0.7593E-02  0.9558E-01  0.9558E-01
     15.401  0.7416E-02  0.7415E-02  0.9630E-01  0.9630E-01
     15.497  0.7028E-02  0.7028E-02  0.9699E-01  0.9699E-01
     15.593  0.7153E-02  0.7154E-02  0.9767E-01  0.9767E-01
     15.689  0.6873E-02  0.6873E-02  0.9835E-01  0.9835E-01
     15.785  0.6666E-02  0.6666E-02  0.9902E-01  0.9902E-01
     15.881  0.6267E-02  0.6267E-02  0.9964E-01  0.9964E-01
     15.976  0.5895E-02  0.5895E-02  0.1002E+00  0.1002E+00
     16.072  0.5759E-02  0.5759E-02  0.1008E+00  0.1008E+00
     16.168  0.5837E-02  0.5838E-02  0.1013E+00  0.1013E+00
     16.264  0.6177E-02  0.6178E-02  0.1019E+00  0.1019E+00
     16.360  0.6666E-02  0.6666E-02  0.1025E+00  0.1025E+00
     16.455  0.6637E-02  0.6637E-02  0.1032E+00  0.1032E+00
     16.551  0.5665E-02  0.5665E-02  0.1037E+00  0.1037E+00
     16.647  0.5298E-02  0.5297E-02  0.1043E+00  0.1043E+00
     16.743  0.4268E-02  0.4267E-02  0.1047E+00  0.1047E+00
     16.839  0.3856E-02  0.3856E-02  0.1051E+00  0.1051E+00
     16.935  0.3667E-02  0.3667E-02  0.1055E+00  0.1055E+00
     17.030  0.3748E-02  0.3748E-02  0.1058E+00  0.1058E+00
     17.126  0.4103E-02  0.4103E-02  0.1062E+00  0.1062E+00
     17.222  0.4473E-02  0.4473E-02  0.1066E+00  0.1066E+00
     17.318  0.4701E-02  0.4701E-02  0.1071E+00  0.1071E+00
     17.414  0.4822E-02  0.4822E-02  0.1075E+00  0.1075E+00
     17.510  0.4780E-02  0.4780E-02  0.1080E+00  0.1080E+00
     17.605  0.4634E-02  0.4633E-02  0.1084E+00  0.1084E+00
     17.701  0.7128E-02  0.7128E-02  0.1089E+00  0.1089E+00
     17.797  0.9369E-02  0.9368E-02  0.1098E+00  0.1098E+00
     17.893  0.9014E-02  0.9013E-02  0.1107E+00  0.1107E+00
     17.989  0.8391E-02  0.8390E-02  0.1115E+00  0.1115E+00
     18.085  0.7571E-02  0.7569E-02  0.1123E+00  0.1123E+00
     18.180  0.7727E-02  0.7725E-02  0.1130E+00  0.1130E+00
     18.276  0.7707E-02  0.7705E-02  0.1138E+00  0.1138E+00
     18.372  0.7511E-02  0.7510E-02  0.1145E+00  0.1145E+00
     18.468  0.7139E-02  0.7138E-02  0.1152E+00  0.1152E+00
     18.564  0.6592E-02  0.6591E-02  0.1158E+00  0.1158E+00
     18.660  0.5408E-02  0.5407E-02  0.1165E+00  0.1165E+00
     18.755  0.5829E-02  0.5830E-02  0.1170E+00  0.1170E+00
     18.851  0.6403E-02  0.6408E-02  0.1176E+00  0.1176E+00
     18.947  0.4851E-02  0.4859E-02  0.1181E+00  0.1181E+00
     19.043  0.4113E-02  0.4125E-02  0.1186E+00  0.1186E+00
     19.139  0.3604E-02  0.3614E-02  0.1189E+00  0.1189E+00
     19.234  0.3332E-02  0.3332E-02  0.1193E+00  0.1193E+00
     19.330  0.4335E-02  0.4333E-02  0.1196E+00  0.1196E+00
     19.426  0.4227E-02  0.4214E-02  0.1201E+00  0.1201E+00
     19.522  0.3365E-02  0.3354E-02  0.1204E+00  0.1204E+00
     19.618  0.2477E-02  0.2471E-02  0.1207E+00  0.1207E+00
     19.714  0.1772E-02  0.1769E-02  0.1209E+00  0.1209E+00
     19.809  0.1249E-02  0.1247E-02  0.1211E+00  0.1211E+00
     19.905  0.9072E-03  0.9070E-03  0.1212E+00  0.1212E+00
     20.001  0.0000E+00  0.0000E+00  0.1212E+00  0.1212E+00
     20.097  0.0000E+00  0.0000E+00  0.1212E+00  0.1212E+00
     20.193  0.0000E+00  0.0000E+00  0.1212E+00  0.1212E+00
     20.289  0.0000E+00  0.0000E+00  0.1212E+00  0.1212E+00
     20.384  0.0000E+00  0.0000E+00  0.1212E+00  0.1212E+00
     20.480  0.0000E+00  0.0000E+00  0.1212E+00  0.1212E+00
     20.576  0.0000E+00  0.0000E+00  0.1212E+00  0.1212E+00
     20.672  0.0000E+00  0.0000E+00  0.1212E+00  0.1212E+00
     20.768  0.0000E+00  0.0000E+00  0.1212E+00  0.1212E+00
     20.864  0.0000E+00  0.0000E+00  0.1212E+00  0.1212E+00
     20.959  0.0000E+00  0.0000E+00  0.1212E+00  0.1212E+00
     21.055  0.0000E+00  0.0000E+00  0.1212E+00  0.1212E+00
     21.151  0.0000E+00  0.0000E+00  0.1212E+00  0.1212E+00
     21.247  0.0000E+00  0.0000E+00  0.1212E+00  0.1212E+00
     21.24688413     -7.50155316  301      5.62989450      1.00000000
     -7.502  0.0000E+00  0.0000E+00  0.0000E+00  0.0000E+00  0.0000E+00  0.0000E+00  0.0000E+00  0.0000E+00  0.0000E+00  0.0000E+00  0.0000E+00  0.0000E+00  0.0000E+00  0.0000E+00  0.0000E+00  0.0000E+00  0.0000E+00  0.0000E+00
     -7.406  0.0000E+00  0.0000E+00  0.0000E+00  0.0000E+00  0.0000E+00  0.0000E+00  0.0000E+00  0.0000E+00  0.0000E+00  0.0000E+00  0.0000E+00  0.0000E+00  0.0000E+00  0.0000E+00  0.0000E+00  0.0000E+00  0.0000E+00  0.0000E+00
     -7.310  0.0000E+00  0.0000E+00  0.0000E+00  0.0000E+00  0.0000E+00  0.0000E+00  0.0000E+00  0.0000E+00  0.0000E+00  0.0000E+00  0.0000E+00  0.0000E+00  0.0000E+00  0.0000E+00  0.0000E+00  0.0000E+00  0.0000E+00  0.0000E+00
     -7.214  0.0000E+00  0.0000E+00  0.0000E+00  0.0000E+00  0.0000E+00  0.0000E+00  0.0000E+00  0.0000E+00  0.0000E+00  0.0000E+00  0.0000E+00  0.0000E+00  0.0000E+00  0.0000E+00  0.0000E+00  0.0000E+00  0.0000E+00  0.0000E+00
     -7.118  0.0000E+00  0.0000E+00  0.0000E+00  0.0000E+00  0.0000E+00  0.0000E+00  0.0000E+00  0.0000E+00  0.0000E+00  0.0000E+00  0.0000E+00  0.0000E+00  0.0000E+00  0.0000E+00  0.0000E+00  0.0000E+00  0.0000E+00  0.0000E+00
     -7.022  0.0000E+00  0.0000E+00  0.0000E+00  0.0000E+00  0.0000E+00  0.0000E+00  0.0000E+00  0.0000E+00  0.0000E+00  0.0000E+00  0.0000E+00  0.0000E+00  0.0000E+00  0.0000E+00  0.0000E+00  0.0000E+00  0.0000E+00  0.0000E+00
     -6.927  0.0000E+00  0.0000E+00  0.0000E+00  0.0000E+00  0.0000E+00  0.0000E+00  0.0000E+00  0.0000E+00  0.0000E+00  0.0000E+00  0.0000E+00  0.0000E+00  0.0000E+00  0.0000E+00  0.0000E+00  0.0000E+00  0.0000E+00  0.0000E+00
     -6.831  0.0000E+00  0.0000E+00  0.0000E+00  0.0000E+00  0.0000E+00  0.0000E+00  0.0000E+00  0.0000E+00  0.0000E+00  0.0000E+00  0.0000E+00  0.0000E+00  0.0000E+00  0.0000E+00  0.0000E+00  0.0000E+00  0.0000E+00  0.0000E+00
     -6.735  0.0000E+00  0.0000E+00  0.0000E+00  0.0000E+00  0.0000E+00  0.0000E+00  0.0000E+00  0.0000E+00  0.0000E+00  0.0000E+00  0.0000E+00  0.0000E+00  0.0000E+00  0.0000E+00  0.0000E+00  0.0000E+00  0.0000E+00  0.0000E+00
     -6.639  0.0000E+00  0.0000E+00  0.0000E+00  0.0000E+00  0.0000E+00  0.0000E+00  0.0000E+00  0.0000E+00  0.0000E+00  0.0000E+00  0.0000E+00  0.0000E+00  0.0000E+00  0.0000E+00  0.0000E+00  0.0000E+00  0.0000E+00  0.0000E+00
     -6.543  0.0000E+00  0.0000E+00  0.0000E+00  0.0000E+00  0.0000E+00  0.0000E+00  0.0000E+00  0.0000E+00  0.0000E+00  0.0000E+00  0.0000E+00  0.0000E+00  0.0000E+00  0.0000E+00  0.0000E+00  0.0000E+00  0.0000E+00  0.0000E+00
     -6.447  0.0000E+00  0.0000E+00  0.0000E+00  0.0000E+00  0.0000E+00  0.0000E+00  0.0000E+00  0.0000E+00  0.0000E+00  0.0000E+00  0.0000E+00  0.0000E+00  0.0000E+00  0.0000E+00  0.0000E+00  0.0000E+00  0.0000E+00  0.0000E+00
     -6.352  0.0000E+00  0.0000E+00  0.0000E+00  0.0000E+00  0.0000E+00  0.0000E+00  0.0000E+00  0.0000E+00  0.0000E+00  0.0000E+00  0.0000E+00  0.0000E+00  0.0000E+00  0.0000E+00  0.0000E+00  0.0000E+00  0.0000E+00  0.0000E+00
     -6.256  0.0000E+00  0.0000E+00  0.0000E+00  0.0000E+00  0.0000E+00  0.0000E+00  0.0000E+00  0.0000E+00  0.0000E+00  0.0000E+00  0.0000E+00  0.0000E+00  0.0000E+00  0.0000E+00  0.0000E+00  0.0000E+00  0.0000E+00  0.0000E+00
     -6.160  0.3731E-03  0.3747E-03  0.8161E-06  0.8196E-06  0.8161E-06  0.8196E-06  0.2490E-05  0.2500E-05  0.0000E+00  0.0000E+00  0.0000E+00  0.0000E+00  0.0000E+00  0.0000E+00  0.0000E+00  0.0000E+00  0.0000E+00  0.0000E+00
     -6.064  0.5263E-02  0.5269E-02  0.1151E-04  0.1153E-04  0.1151E-04  0.1153E-04  0.3512E-04  0.3516E-04  0.0000E+00  0.0000E+00  0.0000E+00  0.0000E+00  0.0000E+00  0.0000E+00  0.0000E+00  0.0000E+00  0.0000E+00  0.0000E+00
     -5.968  0.1582E-01  0.1583E-01  0.3460E-04  0.3463E-04  0.3460E-04  0.3463E-04  0.1056E-03  0.1056E-03  0.0000E+00  0.0000E+00  0.0000E+00  0.0000E+00  0.0000E+00  0.0000E+00  0.0000E+00  0.0000E+00  0.0000E+00  0.0000E+00
     -5.872  0.1820E-01  0.1820E-01  0.1078E-03  0.1078E-03  0.1078E-03  0.1078E-03  0.1447E-03  0.1447E-03  0.0000E+00  0.0000E+00  0.0000E+00  0.0000E+00  0.0000E+00  0.0000E+00  0.0000E+00  0.0000E+00  0.0000E+00  0.0000E+00
     -5.777  0.2076E-01  0.2077E-01  0.1369E-03  0.1369E-03  0.1369E-03  0.1369E-03  0.2503E-03  0.2504E-03  0.0000E+00  0.0000E+00  0.0000E+00  0.0000E+00  0.0000E+00  0.0000E+00  0.0000E+00  0.0000E+00  0.0000E+00  0.0000E+00
     -5.681  0.2405E-01  0.2406E-01  0.1654E-03  0.1654E-03  0.1654E-03  0.1654E-03  0.3663E-03  0.3664E-03  0.0000E+00  0.0000E+00  0.0000E+00  0.0000E+00  0.0000E+00  0.0000E+00  0.0000E+00  0.0000E+00  0.0000E+00  0.0000E+00
     -5.585  0.2756E-01  0.2756E-01  0.1985E-03  0.1986E-03  0.1985E-03  0.1986E-03  0.4856E-03  0.4857E-03  0.0000E+00  0.0000E+00  0.0000E+00  0.0000E+00  0.0000E+00  0.0000E+00  0.0000E+00  0.0000E+00  0.0000E+00  0.0000E+00
     -5.489  0.3126E-01  0.3127E-01  0.2366E-03  0.2366E-03  0.2365E-03  0.2365E-03  0.6083E-03  0.6084E-03  0.0000E+00  0.0000E+00  0.0000E+00  0.0000E+00  0.0000E+00  0.0000E+00  0.0000E+00  0.0000E+00  0.0000E+00  0.0000E+00
     -5.393  0.3423E-01  0.3423E-01  0.2931E-03  0.2932E-03  0.2885E-03  0.2885E-03  0.7385E-03  0.7386E-03  0.0000E+00  0.0000E+00  0.0000E+00  0.0000E+00  0.0000E+00  0.0000E+00  0.0000E+00  0.0000E+00  0.0000E+00  0.0000E+00
     -5.298  0.3595E-01  0.3595E-01  0.3756E-03  0.3757E-03  0.3595E-03  0.3596E-03  0.8785E-03  0.8786E-03  0.0000E+00  0.0000E+00  0.0000E+00  0.0000E+00  0.0000E+00  0.0000E+00  0.0000E+00  0.0000E+00  0.0000E+00  0.0000E+00
     -5.202  0.3714E-01  0.3714E-01  0.4699E-03  0.4700E-03  0.4395E-03  0.4395E-03  0.1024E-02  0.1024E-02  0.0000E+00  0.0000E+00  0.0000E+00  0.0000E+00  0.0000E+00  0.0000E+00  0.0000E+00  0.0000E+00  0.0000E+00  0.0000E+00
     -5.106  0.3956E-01  0.3956E-01  0.5168E-03  0.5168E-03  0.4755E-03  0.4755E-03  0.1219E-02  0.1219E-02  0.0000E+00  0.0000E+00  0.0000E+00  0.0000E+00  0.0000E+00  0.0000E+00  0.0000E+00  0.0000E+00  0.0000E+00  0.0000E+00
     -5.010  0.4210E-01  0.4210E-01  0.5631E-03  0.5631E-03  0.5122E-03  0.5122E-03  0.1422E-02  0.1422E-02  0.0000E+00  0.0000E+00  0.0000E+00  0.0000E+00  0.0000E+00  0.0000E+00  0.0000E+00  0.0000E+00  0.0000E+00  0.0000E+00
     -4.914  0.4473E-01  0.4473E-01  0.6108E-03  0.6109E-03  0.5518E-03  0.5518E-03  0.1630E-02  0.1630E-02  0.0000E+00  0.0000E+00  0.0000E+00  0.0000E+00  0.0000E+00  0.0000E+00  0.0000E+00  0.0000E+00  0.0000E+00  0.0000E+00
     -4.818  0.4746E-01  0.4746E-01  0.6601E-03  0.6602E-03  0.5942E-03  0.5943E-03  0.1842E-02  0.1843E-02  0.0000E+00  0.0000E+00  0.0000E+00  0.0000E+00  0.0000E+00  0.0000E+00  0.0000E+00  0.0000E+00  0.0000E+00  0.0000E+00
     -4.723  0.5028E-01  0.5029E-01  0.7118E-03  0.7118E-03  0.6399E-03  0.6399E-03  0.2058E-02  0.2058E-02  0.0000E+00  0.0000E+00  0.0000E+00  0.0000E+00  0.0000E+00  0.0000E+00  0.0000E+00  0.0000E+00  0.0000E+00  0.0000E+00
     -4.627  0.5322E-01  0.5322E-01  0.7669E-03  0.7669E-03  0.6891E-03  0.6891E-03  0.2274E-02  0.2275E-02  0.0000E+00  0.0000E+00  0.0000E+00  0.0000E+00  0.0000E+00  0.0000E+00  0.0000E+00  0.0000E+00  0.0000E+00  0.0000E+00
     -4.531  0.5577E-01  0.5578E-01  0.8685E-03  0.8685E-03  0.7941E-03  0.7942E-03  0.2551E-02  0.2551E-02  0.0000E+00  0.0000E+00  0.0000E+00  0.0000E+00  0.0000E+00  0.0000E+00  0.0000E+00  0.0000E+00  0.0000E+00  0.0000E+00
     -4.435  0.5922E-01  0.5922E-01  0.9585E-03  0.9586E-03  0.9000E-03  0.9001E-03  0.2853E-02  0.2853E-02  0.0000E+00  0.0000E+00  0.0000E+00  0.0000E+00  0.0000E+00  0.0000E+00  0.0000E+00  0.0000E+00  0.0000E+00  0.0000E+00
     -4.339  0.6311E-01  0.6312E-01  0.1058E-02  0.1058E-02  0.1018E-02  0.1018E-02  0.3168E-02  0.3168E-02  0.0000E+00  0.0000E+00  0.0000E+00  0.0000E+00  0.0000E+00  0.0000E+00  0.0000E+00  0.0000E+00  0.0000E+00  0.0000E+00
     -4.243  0.6749E-01  0.6750E-01  0.1167E-02  0.1167E-02  0.1149E-02  0.1149E-02  0.3499E-02  0.3499E-02  0.0000E+00  0.0000E+00  0.0000E+00  0.0000E+00  0.0000E+00  0.0000E+00  0.0000E+00  0.0000E+00  0.0000E+00  0.0000E+00
     -4.148  0.7574E-01  0.7575E-01  0.1343E-02  0.1344E-02  0.1350E-02  0.1351E-02  0.3969E-02  0.3969E-02  0.0000E+00  0.0000E+00  0.0000E+00  0.0000E+00  0.0000E+00  0.0000E+00  0.0000E+00  0.0000E+00  0.0000E+00  0.0000E+00
     -4.052  0.8787E-01  0.8788E-01  0.1599E-02  0.1599E-02  0.1635E-02  0.1635E-02  0.4555E-02  0.4555E-02  0.0000E+00  0.0000E+00  0.0000E+00  0.0000E+00  0.0000E+00  0.0000E+00  0.0000E+00  0.0000E+00  0.0000E+00  0.0000E+00
     -3.956  0.9438E-01  0.9439E-01  0.1725E-02  0.1725E-02  0.1793E-02  0.1793E-02  0.5003E-02  0.5003E-02  0.0000E+00  0.0000E+00  0.0000E+00  0.0000E+00  0.0000E+00  0.0000E+00  0.0000E+00  0.0000E+00  0.0000E+00  0.0000E+00
     -3.860  0.9528E-01  0.9528E-01  0.1722E-02  0.1722E-02  0.1823E-02  0.1823E-02  0.5304E-02  0.5304E-02  0.0000E+00  0.0000E+00  0.0000E+00  0.0000E+00  0.0000E+00  0.0000E+00  0.0000E+00  0.0000E+00  0.0000E+00  0.0000E+00
     -3.764  0.9045E-01  0.9044E-01  0.1589E-02  0.1588E-02  0.1724E-02  0.1724E-02  0.5457E-02  0.5457E-02  0.0000E+00  0.0000E+00  0.0000E+00  0.0000E+00  0.0000E+00  0.0000E+00  0.0000E+00  0.0000E+00  0.0000E+00  0.0000E+00
     -3.668  0.9220E-01  0.9221E-01  0.1595E-02  0.1595E-02  0.1790E-02  0.1790E-02  0.5989E-02  0.5990E-02  0.0000E+00  0.0000E+00  0.0000E+00  0.0000E+00  0.0000E+00  0.0000E+00  0.0000E+00  0.0000E+00  0.0000E+00  0.0000E+00
     -3.573  0.9758E-01  0.9757E-01  0.1667E-02  0.1667E-02  0.1958E-02  0.1958E-02  0.6784E-02  0.6784E-02  0.0000E+00  0.0000E+00  0.0000E+00  0.0000E+00  0.0000E+00  0.0000E+00  0.0000E+00  0.0000E+00  0.0000E+00  0.0000E+00
     -3.477  0.8888E-01  0.8887E-01  0.1430E-02  0.1429E-02  0.1870E-02  0.1870E-02  0.6803E-02  0.6803E-02  0.0000E+00  0.0000E+00  0.0000E+00  0.0000E+00  0.0000E+00  0.0000E+00  0.0000E+00  0.0000E+00  0.0000E+00  0.0000E+00
     -3.381  0.8237E-01  0.8236E-01  0.1233E-02  0.1233E-02  0.1887E-02  0.1887E-02  0.6705E-02  0.6704E-02  0.0000E+00  0.0000E+00  0.0000E+00  0.0000E+00  0.0000E+00  0.0000E+00  0.0000E+00  0.0000E+00  0.0000E+00  0.0000E+00
     -3.285  0.7710E-01  0.7710E-01  0.1074E-02  0.1073E-02  0.1908E-02  0.1908E-02  0.6636E-02  0.6636E-02  0.0000E+00  0.0000E+00  0.0000E+00  0.0000E+00  0.0000E+00  0.0000E+00  0.0000E+00  0.0000E+00  0.0000E+00  0.0000E+00
     -3.189  0.7309E-01  0.7308E-01  0.9519E-03  0.9518E-03  0.1935E-02  0.1935E-02  0.6598E-02  0.6598E-02  0.0000E+00  0.0000E+00  0.0000E+00  0.0000E+00  0.0000E+00  0.0000E+00  0.0000E+00  0.0000E+00  0.0000E+00  0.0000E+00
     -3.093  0.7076E-01  0.7076E-01  0.8693E-03  0.8692E-03  0.1967E-02  0.1967E-02  0.6667E-02  0.6667E-02  0.0000E+00  0.0000E+00  0.0000E+00  0.0000E+00  0.0000E+00  0.0000E+00  0.0000E+00  0.0000E+00  0.0000E+00  0.0000E+00
     -2.998  0.6917E-01  0.6917E-01  0.8032E-03  0.8031E-03  0.1975E-02  0.1975E-02  0.6784E-02  0.6784E-02  0.0000E+00  0.0000E+00  0.0000E+00  0.0000E+00  0.0000E+00  0.0000E+00  0.0000E+00  0.0000E+00  0.0000E+00  0.0000E+00
     -2.902  0.6978E-01  0.6979E-01  0.7155E-03  0.7155E-03  0.2000E-02  0.2000E-02  0.7363E-02  0.7364E-02  0.0000E+00  0.0000E+00  0.0000E+00  0.0000E+00  0.0000E+00  0.0000E+00  0.0000E+00  0.0000E+00  0.0000E+00  0.0000E+00
     -2.806  0.6990E-01  0.6990E-01  0.6312E-03  0.6311E-03  0.2031E-02  0.2031E-02  0.7814E-02  0.7814E-02  0.0000E+00  0.0000E+00  0.0000E+00  0.0000E+00  0.0000E+00  0.0000E+00  0.0000E+00  0.0000E+00  0.0000E+00  0.0000E+00
     -2.710  0.6511E-01  0.6510E-01  0.5293E-03  0.5293E-03  0.1941E-02  0.1941E-02  0.7551E-02  0.7551E-02  0.0000E+00  0.0000E+00  0.0000E+00  0.0000E+00  0.0000E+00  0.0000E+00  0.0000E+00  0.0000E+00  0.0000E+00  0.0000E+00