    2    2   99    2
  0.1947597E+02  0.3804942E-09  0.3804942E-09  0.3804942E-09  0.5000000E-15
  1.000000000000000E-004
  CAR 
 unknown system                          
      8     20     12
 
  0.0000000E+00  0.0000000E+00  0.0000000E+00  0.2915452E-02
    1       -6.194733     -6.194806
    2        5.621908      5.621822
    3        5.621908      5.621822
    4        5.621908      5.621822
    5        8.176946      8.176888
    6        8.176946      8.176888
    7        8.176946      8.176888
    8        8.757548      8.757456
    9       13.328752     13.328737
   10       13.328752     13.328737
   11       13.499777     13.499756
   12       16.801895     16.801868
 
  0.1428571E+00  0.0000000E+00  0.0000000E+00  0.2332362E-01
    1       -5.933307     -5.933381
    2        3.701517      3.701436
    3        5.272252      5.272168
    4        5.272252      5.272168
    5        7.999472      7.999409
    6        8.688412      8.688353
    7        8.688412      8.688353
    8       10.473102     10.473018
    9       12.779787     12.779769
   10       12.779787     12.779769
   11       14.445938     14.445911
   12       16.189137     16.189123
 
  0.2857143E+00  0.0000000E+00  0.0000000E+00  0.2332362E-01
    1       -5.180857     -5.180932
    2        1.118395      1.118318
    3        4.764472      4.764388
    4        4.764472      4.764388
    5        7.456191      7.456129
    6        9.145092      9.145040
    7        9.145092      9.145040
    8       12.934945     12.934877
    9       13.059481     13.059458
   10       13.059481     13.059458
   11       14.448415     14.448395
   12       18.085888     18.085850
 
  0.4285714E+00  0.0000000E+00  0.0000000E+00  0.2332362E-01
    1       -4.163207     -4.163286
    2       -0.876383     -0.876455
    3        4.479221      4.479136
    4        4.479221      4.479136
    5        7.130417      7.130356
    6        9.007581      9.007536
    7        9.007581      9.007536
    8       13.380741     13.380732
    9       15.043677     15.043654
   10       15.043682     15.043659
   11       16.007990     16.007927
   12       18.064401     18.064370
 
  0.1428571E+00  0.1428571E+00  0.0000000E+00  0.1749271E-01
    1       -5.844835     -5.844909
    2        3.973673      3.973587
    3        4.671660      4.671579
    4        4.671660      4.671579
    5        7.507943      7.507893
    6        9.555101      9.555040
    7        9.555101      9.555040
    8        9.912356      9.912281
    9       12.033382     12.033346
   10       13.718316     13.718301
   11       14.857391     14.857361
   12       17.409161     17.409140
 
  0.2857143E+00  0.1428571E+00  0.0000000E+00  0.6997085E-01
    1       -5.248655     -5.248731
    2        1.888536      1.888455
    3        4.089630      4.089550
    4        4.138214      4.138134
    5        7.696165      7.696115
    6        9.448567      9.448498
    7       10.181825     10.181793
    8       10.333324     10.333266
    9       13.634228     13.634157
   10       14.094341     14.094322
   11       15.762662     15.762639
   12       17.607727     17.607708
 
  0.4285714E+00  0.1428571E+00  0.0000000E+00  0.6997085E-01
    1       -4.259807     -4.259885
    2       -0.256462     -0.256539
    3        3.410759      3.410682
    4        3.950875      3.950794
    5        7.752925      7.752877
    6        9.398942      9.398885
    7       10.134292     10.134244
    8       11.367682     11.367643
    9       15.035176     15.035162
   10       15.794728     15.794709
   11       16.389627     16.389561
   12       17.749987     17.749956
 
 -0.4285714E+00  0.1428571E+00  0.0000000E+00  0.6997085E-01
    1       -3.715543     -3.715624
    2       -1.101436     -1.101509
    3        3.005132      3.005056
    4        4.143598      4.143515
    5        7.839807      7.839756
    6        9.322607      9.322557
    7        9.748086      9.748040
    8       13.716794     13.716754
    9       14.241676     14.241647
   10       14.614214     14.614188
   11       16.505404     16.505368
   12       18.655935     18.656028
 
 -0.2857143E+00  0.1428571E+00  0.0000000E+00  0.6997085E-01
    1       -4.620690     -4.620767
    2        0.410768      0.410690
    3        3.014241      3.014167
    4        4.647284      4.647199
    5        8.223005      8.222946
    6        9.505245      9.505194
    7        9.529119      9.529071
    8       12.190940     12.190889
    9       12.364291     12.364266
   10       15.390942     15.390920
   11       16.662578     16.662526
   12       17.729308     17.729279
 
 -0.1428571E+00  0.1428571E+00  0.0000000E+00  0.3498542E-01
    1       -5.504744     -5.504819
    2        2.498491      2.498408
    3        3.699694      3.699621
    4        5.229192      5.229106
    5        8.612218      8.612151
    6        8.898040      8.897984
    7        9.145854      9.145799
    8       11.162271     11.162213
    9       11.842180     11.842162
   10       14.054825     14.054782
   11       15.618508     15.618472
   12       16.845230     16.845228
 
  0.2857143E+00  0.2857143E+00  0.0000000E+00  0.1749271E-01
    1       -4.812033     -4.812109
    2        1.470194      1.470108
    3        3.527202      3.527122
    4        3.527202      3.527122
    5        6.576881      6.576841
    6        8.247961      8.247929
    7       11.938098     11.938037
    8       11.938098     11.938038
    9       14.229778     14.229694
   10       14.884104     14.884090
   11       17.657808     17.657762
   12       18.894620     18.894601
 
  0.4285714E+00  0.2857143E+00  0.0000000E+00  0.6997085E-01
    1       -3.925893     -3.925971
    2       -0.008208     -0.008292
    3        2.568996      2.568925
    4        3.271159      3.271079
    5        6.859932      6.859894
    6        8.329885      8.329848
    7       12.146384     12.146322
    8       12.338925     12.338873
    9       16.439498     16.439480
   10       16.691347     16.691261
   11       17.151446     17.151408
   12       17.730115     17.730093
 
 -0.4285714E+00  0.2857143E+00  0.0000000E+00  0.6997085E-01
    1       -3.029582     -3.029663
    2       -1.161103     -1.161183
    3        1.634498      1.634431
    4        3.436188      3.436107
    5        7.097120      7.097084
    6       10.543057     10.543019
    7       11.851026     11.850978
    8       11.880364     11.880301
    9       14.558108     14.558053
   10       14.625618     14.625591
   11       18.909642     18.909495
   12       19.254791     19.252268
 
 -0.2857143E+00  0.2857143E+00  0.0000000E+00  0.3498542E-01
    1       -3.666104     -3.666183
    2       -0.424055     -0.424137
    3        1.563842      1.563776
    4        3.974762      3.974680
    5        7.687843      7.687801
    6       11.028581     11.028526
    7       11.365880     11.365838
    8       12.129016     12.128953
    9       12.499362     12.499340
   10       13.679240     13.679189
   11       18.842677     18.842572
   12       19.457605     19.457560
 
  0.4285714E+00  0.4285714E+00  0.0000000E+00  0.1749271E-01
    1       -3.154167     -3.154246
    2       -0.992123     -0.992206
    3        2.905739      2.905659
    4        2.905739      2.905659
    5        6.231655      6.231620
    6        6.748476      6.748445
    7       14.550903     14.550844
    8       14.550903     14.550844
    9       16.816113     16.816100
   10       17.175808     17.175719
   11       17.557935     17.557916
   12       17.557936     17.557916
 
 -0.4285714E+00  0.4285714E+00  0.0000000E+00  0.3498542E-01
    1       -2.223802     -2.223885
    2       -1.934775     -1.934856
    3        2.035689      2.035620
    4        2.966006      2.965927
    5        6.532052      6.532019
    6        7.769373      7.769333
    7       14.330523     14.330462
    8       14.739862     14.739787
    9       14.980263     14.980227
   10       15.298979     15.298965
   11       19.215982     19.221331
   12       19.255524     19.254800
 
  0.4285714E+00  0.2857143E+00  0.1428571E+00  0.6997085E-01
    1       -4.509600     -4.509677
    2        0.751761      0.751677
    3        2.572820      2.572749
    4        3.869725      3.869646
    5        8.199077      8.199028
    6        9.435026      9.434982
    7        9.728526      9.728477
    8       11.698049     11.697992
    9       13.794353     13.794312
   10       16.479480     16.479440
   11       16.867832     16.867775
   12       18.079697     18.079704
 
 -0.4285714E+00  0.2857143E+00  0.1428571E+00  0.1399417E+00
    1       -3.489265     -3.489345
    2       -0.750265     -0.750344
    3        2.005115      2.005045
    4        3.346278      3.346202
    5        8.680517      8.680471
    6        9.084877      9.084830
    7       11.045757     11.045711
    8       12.149366     12.149314
    9       13.871146     13.871102
   10       15.510664     15.510627
   11       17.718140     17.718120
   12       18.905823     18.905780
 
 -0.4285714E+00  0.4285714E+00  0.1428571E+00  0.6997085E-01
    1       -2.955045     -2.955125
    2       -1.078942     -1.079026
    3        2.099910      2.099840
    4        2.504814      2.504742
    5        7.838701      7.838658
    6        8.208942      8.208904
    7       11.708182     11.708129
    8       14.179651     14.179590
    9       14.679609     14.679576
   10       16.550426     16.550382
   11       17.947192     17.947152
   12       19.513437     19.513390
 
 -0.2857143E+00  0.4285714E+00  0.1428571E+00  0.6997085E-01
    1       -2.529809     -2.529892
    2       -1.467808     -1.467891
    3        1.477156      1.477092
    4        2.594218      2.594146
    5        8.359970      8.359928
    6       10.450620     10.450586
    7       11.196832     11.196772
    8       11.353413     11.353365
    9       14.591863     14.591813
   10       15.755338     15.755296
   11       18.658591     18.658544
   12       19.940137     19.940089
