PROCAR lm decomposed
# of k-points:   20         # of bands:  12         # of ions:   2

 k-point    1 :    0.00000000 0.00000000 0.00000000     weight = 0.00291545

band   1 # energy   -6.19473255 # occ.  1.00000000
 
ion      s     py     pz     px    dxy    dyz    dz2    dxz    dx2    tot
  1  0.212  0.000  0.000  0.000  0.000  0.000  0.000  0.000  0.000  0.212
  2  0.212  0.000  0.000  0.000  0.000  0.000  0.000  0.000  0.000  0.212
tot  0.424  0.000  0.000  0.000  0.000  0.000  0.000  0.000  0.000  0.424
 
band   2 # energy    5.62190760 # occ.  1.00000000
 
ion      s     py     pz     px    dxy    dyz    dz2    dxz    dx2    tot
  1  0.000  0.167  0.024  0.024  0.000  0.000  0.000  0.000  0.000  0.214
  2  0.000  0.167  0.024  0.024  0.000  0.000  0.000  0.000  0.000  0.214
tot  0.000  0.333  0.047  0.048  0.000  0.000  0.000  0.000  0.000  0.428
 
band   3 # energy    5.62190760 # occ.  1.00000000
 
ion      s     py     pz     px    dxy    dyz    dz2    dxz    dx2    tot
  1  0.000  0.043  0.064  0.107  0.000  0.000  0.000  0.000  0.000  0.214
  2  0.000  0.043  0.064  0.107  0.000  0.000  0.000  0.000  0.000  0.214
tot  0.000  0.086  0.128  0.214  0.000  0.000  0.000  0.000  0.000  0.428
 
band   4 # energy    5.62190759 # occ.  1.00000000
 
ion      s     py     pz     px    dxy    dyz    dz2    dxz    dx2    tot
  1  0.000  0.004  0.126  0.083  0.000  0.000  0.000  0.000  0.000  0.214
  2  0.000  0.004  0.126  0.083  0.000  0.000  0.000  0.000  0.000  0.214
tot  0.000  0.009  0.253  0.166  0.000  0.000  0.000  0.000  0.000  0.428
 
band   5 # energy    8.17694567 # occ.  0.00000000
 
ion      s     py     pz     px    dxy    dyz    dz2    dxz    dx2    tot
  1  0.000  0.050  0.050  0.050  0.000  0.000  0.000  0.000  0.000  0.151
  2  0.000  0.050  0.050  0.050  0.000  0.000  0.000  0.000  0.000  0.151
tot  0.000  0.100  0.100  0.100  0.000  0.000  0.000  0.000  0.000  0.301
 
band   6 # energy    8.17694570 # occ.  0.00000000
 
ion      s     py     pz     px    dxy    dyz    dz2    dxz    dx2    tot
  1  0.000  0.005  0.060  0.086  0.000  0.000  0.000  0.000  0.000  0.151
  2  0.000  0.005  0.060  0.086  0.000  0.000  0.000  0.000  0.000  0.151
tot  0.000  0.009  0.119  0.173  0.000  0.000  0.000  0.000  0.000  0.301
 
band   7 # energy    8.17694570 # occ.  0.00000000
 
ion      s     py     pz     px    dxy    dyz    dz2    dxz    dx2    tot
  1  0.000  0.096  0.041  0.014  0.000  0.000  0.000  0.000  0.000  0.151
  2  0.000  0.096  0.041  0.014  0.000  0.000  0.000  0.000  0.000  0.151
tot  0.000  0.192  0.081  0.028  0.000  0.000  0.000  0.000  0.000  0.301
 
band   8 # energy    8.75754844 # occ.  0.00000000
 
ion      s     py     pz     px    dxy    dyz    dz2    dxz    dx2    tot
  1  0.359  0.000  0.000  0.000  0.000  0.000  0.000  0.000  0.000  0.359
  2  0.359  0.000  0.000  0.000  0.000  0.000  0.000  0.000  0.000  0.359
tot  0.717  0.000  0.000  0.000  0.000  0.000  0.000  0.000  0.000  0.717
 
band   9 # energy   13.32875203 # occ.  0.00000000
 
ion      s     py     pz     px    dxy    dyz    dz2    dxz    dx2    tot
  1  0.000  0.000  0.000  0.000  0.000  0.000  0.000  0.000  0.000  0.000
  2  0.000  0.000  0.000  0.000  0.000  0.000  0.000  0.000  0.000  0.000
tot  0.000  0.000  0.000  0.000  0.000  0.000  0.000  0.000  0.000  0.000
 
band  10 # energy   13.32875203 # occ.  0.00000000
 
ion      s     py     pz     px    dxy    dyz    dz2    dxz    dx2    tot
  1  0.000  0.000  0.000  0.000  0.000  0.000  0.000  0.000  0.000  0.000
  2  0.000  0.000  0.000  0.000  0.000  0.000  0.000  0.000  0.000  0.000
tot  0.000  0.000  0.000  0.000  0.000  0.000  0.000  0.000  0.000  0.000
 
band  11 # energy   13.49977735 # occ.  0.00000000
 
ion      s     py     pz     px    dxy    dyz    dz2    dxz    dx2    tot
  1  0.100  0.000  0.000  0.000  0.000  0.000  0.000  0.000  0.000  0.100
  2  0.100  0.000  0.000  0.000  0.000  0.000  0.000  0.000  0.000  0.100
tot  0.201  0.000  0.000  0.000  0.000  0.000  0.000  0.000  0.000  0.201
 
band  12 # energy   16.80189549 # occ.  0.00000000
 
ion      s     py     pz     px    dxy    dyz    dz2    dxz    dx2    tot
  1  0.000  0.005  0.019  0.015  0.000  0.000  0.000  0.000  0.000  0.039
  2  0.000  0.005  0.019  0.015  0.000  0.000  0.000  0.000  0.000  0.039
tot  0.000  0.011  0.038  0.030  0.000  0.000  0.000  0.000  0.000  0.078
 

 k-point    2 :    0.14285714 0.00000000 0.00000000     weight = 0.02332362

band   1 # energy   -5.93330714 # occ.  1.00000000
 
ion      s     py     pz     px    dxy    dyz    dz2    dxz    dx2    tot
  1  0.211  0.001  0.001  0.001  0.000  0.000  0.000  0.000  0.000  0.213
  2  0.211  0.001  0.001  0.001  0.000  0.000  0.000  0.000  0.000  0.213
tot  0.421  0.002  0.002  0.002  0.000  0.000  0.000  0.000  0.000  0.427
 
band   2 # energy    3.70151733 # occ.  1.00000000
 
ion      s     py     pz     px    dxy    dyz    dz2    dxz    dx2    tot
  1  0.071  0.049  0.049  0.049  0.000  0.000  0.000  0.000  0.000  0.219
  2  0.071  0.049  0.049  0.049  0.000  0.000  0.000  0.000  0.000  0.219
tot  0.142  0.099  0.099  0.099  0.000  0.000  0.000  0.000  0.000  0.438
 
band   3 # energy    5.27225235 # occ.  1.00000000
 
ion      s     py     pz     px    dxy    dyz    dz2    dxz    dx2    tot
  1  0.000  0.035  0.140  0.035  0.000  0.000  0.000  0.000  0.000  0.211
  2  0.000  0.035  0.140  0.035  0.000  0.000  0.000  0.000  0.000  0.211
tot  0.000  0.070  0.281  0.070  0.000  0.000  0.000  0.000  0.000  0.421
 
band   4 # energy    5.27225236 # occ.  1.00000000
 
ion      s     py     pz     px    dxy    dyz    dz2    dxz    dx2    tot
  1  0.000  0.105  0.000  0.105  0.000  0.000  0.000  0.000  0.000  0.211
  2  0.000  0.105  0.000  0.105  0.000  0.000  0.000  0.000  0.000  0.211
tot  0.000  0.211  0.000  0.211  0.000  0.000  0.000  0.000  0.000  0.421
 
band   5 # energy    7.99947182 # occ.  0.00000000
 
ion      s     py     pz     px    dxy    dyz    dz2    dxz    dx2    tot
  1  0.119  0.027  0.027  0.027  0.000  0.000  0.000  0.000  0.000  0.200
  2  0.119  0.027  0.027  0.027  0.000  0.000  0.000  0.000  0.000  0.200
tot  0.239  0.054  0.054  0.054  0.000  0.000  0.000  0.000  0.000  0.401
 
band   6 # energy    8.68841220 # occ.  0.00000000
 
ion      s     py     pz     px    dxy    dyz    dz2    dxz    dx2    tot
  1  0.000  0.026  0.103  0.026  0.000  0.000  0.000  0.000  0.000  0.154
  2  0.000  0.026  0.103  0.026  0.000  0.000  0.000  0.000  0.000  0.154
tot  0.000  0.051  0.205  0.051  0.000  0.000  0.000  0.000  0.000  0.308
 
band   7 # energy    8.68841223 # occ.  0.00000000
 
ion      s     py     pz     px    dxy    dyz    dz2    dxz    dx2    tot
  1  0.000  0.077  0.000  0.077  0.000  0.000  0.000  0.000  0.000  0.154
  2  0.000  0.077  0.000  0.077  0.000  0.000  0.000  0.000  0.000  0.154
tot  0.000  0.154  0.000  0.154  0.000  0.000  0.000  0.000  0.000  0.308
 
band   8 # energy   10.47310240 # occ.  0.00000000
 
ion      s     py     pz     px    dxy    dyz    dz2    dxz    dx2    tot
  1  0.182  0.036  0.036  0.036  0.000  0.000  0.000  0.000  0.000  0.290
  2  0.182  0.036  0.036  0.036  0.000  0.000  0.000  0.000  0.000  0.290
tot  0.363  0.072  0.072  0.072  0.000  0.000  0.000  0.000  0.000  0.580
 
band   9 # energy   12.77978656 # occ.  0.00000000
 
ion      s     py     pz     px    dxy    dyz    dz2    dxz    dx2    tot
  1  0.000  0.000  0.002  0.000  0.000  0.000  0.000  0.000  0.000  0.002
  2  0.000  0.000  0.002  0.000  0.000  0.000  0.000  0.000  0.000  0.002
tot  0.000  0.001  0.003  0.001  0.000  0.000  0.000  0.000  0.000  0.005
 
band  10 # energy   12.77978657 # occ.  0.00000000
 
ion      s     py     pz     px    dxy    dyz    dz2    dxz    dx2    tot
  1  0.000  0.001  0.000  0.001  0.000  0.000  0.000  0.000  0.000  0.002
  2  0.000  0.001  0.000  0.001  0.000  0.000  0.000  0.000  0.000  0.002
tot  0.000  0.002  0.000  0.002  0.000  0.000  0.000  0.000  0.000  0.005
 
band  11 # energy   14.44593842 # occ.  0.00000000
 
ion      s     py     pz     px    dxy    dyz    dz2    dxz    dx2    tot
  1  0.071  0.013  0.013  0.013  0.000  0.000  0.000  0.000  0.000  0.109
  2  0.071  0.013  0.013  0.013  0.000  0.000  0.000  0.000  0.000  0.109
tot  0.141  0.026  0.026  0.026  0.000  0.000  0.000  0.000  0.000  0.218
 
band  12 # energy   16.18913700 # occ.  0.00000000
 
ion      s     py     pz     px    dxy    dyz    dz2    dxz    dx2    tot
  1  0.020  0.007  0.007  0.007  0.000  0.000  0.000  0.000  0.000  0.040
  2  0.020  0.007  0.007  0.007  0.000  0.000  0.000  0.000  0.000  0.040
tot  0.040  0.013  0.013  0.013  0.000  0.000  0.000  0.000  0.000  0.080
 

 k-point    3 :    0.28571429 0.00000000 0.00000000     weight = 0.02332362

band   1 # energy   -5.18085656 # occ.  1.00000000
 
ion      s     py     pz     px    dxy    dyz    dz2    dxz    dx2    tot
  1  0.209  0.003  0.003  0.003  0.000  0.000  0.000  0.000  0.000  0.219
  2  0.209  0.003  0.003  0.003  0.000  0.000  0.000  0.000  0.000  0.219
tot  0.418  0.007  0.007  0.007  0.000  0.000  0.000  0.000  0.000  0.438
 
band   2 # energy    1.11839523 # occ.  1.00000000
 
ion      s     py     pz     px    dxy    dyz    dz2    dxz    dx2    tot
  1  0.102  0.037  0.037  0.037  0.000  0.000  0.000  0.000  0.000  0.212
  2  0.102  0.037  0.037  0.037  0.000  0.000  0.000  0.000  0.000  0.212
tot  0.204  0.073  0.073  0.073  0.000  0.000  0.000  0.000  0.000  0.423
 
band   3 # energy    4.76447195 # occ.  1.00000000
 
ion      s     py     pz     px    dxy    dyz    dz2    dxz    dx2    tot
  1  0.000  0.035  0.141  0.035  0.000  0.000  0.000  0.000  0.000  0.212
  2  0.000  0.035  0.141  0.035  0.000  0.000  0.000  0.000  0.000  0.212
tot  0.000  0.071  0.283  0.071  0.000  0.000  0.000  0.000  0.000  0.424
 
band   4 # energy    4.76447197 # occ.  1.00000000
 
ion      s     py     pz     px    dxy    dyz    dz2    dxz    dx2    tot
  1  0.000  0.106  0.000  0.106  0.000  0.000  0.000  0.000  0.000  0.212
  2  0.000  0.106  0.000  0.106  0.000  0.000  0.000  0.000  0.000  0.212
tot  0.000  0.212  0.000  0.212  0.000  0.000  0.000  0.000  0.000  0.424
 
band   5 # energy    7.45619053 # occ.  0.00000000
 
ion      s     py     pz     px    dxy    dyz    dz2    dxz    dx2    tot
  1  0.164  0.014  0.014  0.014  0.000  0.000  0.000  0.000  0.000  0.205
  2  0.164  0.014  0.014  0.014  0.000  0.000  0.000  0.000  0.000  0.205
tot  0.328  0.027  0.027  0.027  0.000  0.000  0.000  0.000  0.000  0.410
 
band   6 # energy    9.14509217 # occ.  0.00000000
 
ion      s     py     pz     px    dxy    dyz    dz2    dxz    dx2    tot
  1  0.000  0.021  0.086  0.021  0.000  0.000  0.000  0.000  0.000  0.128
  2  0.000  0.021  0.086  0.021  0.000  0.000  0.000  0.000  0.000  0.128
tot  0.000  0.043  0.171  0.043  0.000  0.000  0.000  0.000  0.000  0.257
 
band   7 # energy    9.14509220 # occ.  0.00000000
 
ion      s     py     pz     px    dxy    dyz    dz2    dxz    dx2    tot
  1  0.000  0.064  0.000  0.064  0.000  0.000  0.000  0.000  0.000  0.128
  2  0.000  0.064  0.000  0.064  0.000  0.000  0.000  0.000  0.000  0.128
tot  0.000  0.128  0.000  0.128  0.000  0.000  0.000  0.000  0.000  0.257
 
band   8 # energy   12.93494520 # occ.  0.00000000
 
ion      s     py     pz     px    dxy    dyz    dz2    dxz    dx2    tot
  1  0.078  0.053  0.053  0.053  0.000  0.000  0.000  0.000  0.000  0.239
  2  0.078  0.053  0.053  0.053  0.000  0.000  0.000  0.000  0.000  0.239
tot  0.157  0.107  0.107  0.107  0.000  0.000  0.000  0.000  0.000  0.477
 
band   9 # energy   13.05948109 # occ.  0.00000000
 
ion      s     py     pz     px    dxy    dyz    dz2    dxz    dx2    tot
  1  0.000  0.004  0.016  0.004  0.000  0.000  0.000  0.000  0.000  0.024
  2  0.000  0.004  0.016  0.004  0.000  0.000  0.000  0.000  0.000  0.024
tot  0.000  0.008  0.033  0.008  0.000  0.000  0.000  0.000  0.000  0.049
 
band  10 # energy   13.05948110 # occ.  0.00000000
 
ion      s     py     pz     px    dxy    dyz    dz2    dxz    dx2    tot
  1  0.000  0.012  0.000  0.012  0.000  0.000  0.000  0.000  0.000  0.024
  2  0.000  0.012  0.000  0.012  0.000  0.000  0.000  0.000  0.000  0.024
tot  0.000  0.024  0.000  0.024  0.000  0.000  0.000  0.000  0.000  0.049
 
band  11 # energy   14.44841459 # occ.  0.00000000
 
ion      s     py     pz     px    dxy    dyz    dz2    dxz    dx2    tot
  1  0.064  0.005  0.005  0.005  0.000  0.000  0.000  0.000  0.000  0.079
  2  0.064  0.005  0.005  0.005  0.000  0.000  0.000  0.000  0.000  0.079
tot  0.128  0.010  0.010  0.010  0.000  0.000  0.000  0.000  0.000  0.158
 
band  12 # energy   18.08588761 # occ.  0.00000000
 
ion      s     py     pz     px    dxy    dyz    dz2    dxz    dx2    tot
  1  0.030  0.034  0.034  0.034  0.000  0.000  0.000  0.000  0.000  0.131
  2  0.030  0.034  0.034  0.034  0.000  0.000  0.000  0.000  0.000  0.131
tot  0.059  0.068  0.068  0.068  0.000  0.000  0.000  0.000  0.000  0.262
 

 k-point    4 :    0.42857143 0.00000000 0.00000000     weight = 0.02332362

band   1 # energy   -4.16320710 # occ.  1.00000000
 
ion      s     py     pz     px    dxy    dyz    dz2    dxz    dx2    tot
  1  0.217  0.005  0.005  0.005  0.000  0.000  0.000  0.000  0.000  0.231
  2  0.217  0.005  0.005  0.005  0.000  0.000  0.000  0.000  0.000  0.231
tot  0.434  0.010  0.010  0.010  0.000  0.000  0.000  0.000  0.000  0.463
 
band   2 # energy   -0.87638292 # occ.  1.00000000
 
ion      s     py     pz     px    dxy    dyz    dz2    dxz    dx2    tot
  1  0.105  0.031  0.031  0.031  0.000  0.000  0.000  0.000  0.000  0.197
  2  0.105  0.031  0.031  0.031  0.000  0.000  0.000  0.000  0.000  0.197
tot  0.210  0.062  0.062  0.062  0.000  0.000  0.000  0.000  0.000  0.395
 
band   3 # energy    4.47922148 # occ.  1.00000000
 
ion      s     py     pz     px    dxy    dyz    dz2    dxz    dx2    tot
  1  0.000  0.118  0.091  0.006  0.000  0.000  0.000  0.000  0.000  0.215
  2  0.000  0.118  0.091  0.006  0.000  0.000  0.000  0.000  0.000  0.215
tot  0.000  0.237  0.182  0.011  0.000  0.000  0.000  0.000  0.000  0.430
 
band   4 # energy    4.47922149 # occ.  1.00000000
 
ion      s     py     pz     px    dxy    dyz    dz2    dxz    dx2    tot
  1  0.000  0.025  0.052  0.138  0.000  0.000  0.000  0.000  0.000  0.215
  2  0.000  0.025  0.052  0.138  0.000  0.000  0.000  0.000  0.000  0.215
tot  0.000  0.050  0.105  0.275  0.000  0.000  0.000  0.000  0.000  0.430
 
band   5 # energy    7.13041678 # occ.  0.00000000
 
ion      s     py     pz     px    dxy    dyz    dz2    dxz    dx2    tot
  1  0.183  0.008  0.008  0.008  0.000  0.000  0.000  0.000  0.000  0.205
  2  0.183  0.008  0.008  0.008  0.000  0.000  0.000  0.000  0.000  0.205
tot  0.365  0.015  0.015  0.015  0.000  0.000  0.000  0.000  0.000  0.411
 
band   6 # energy    9.00758058 # occ.  0.00000000
 
ion      s     py     pz     px    dxy    dyz    dz2    dxz    dx2    tot
  1  0.000  0.006  0.062  0.031  0.000  0.000  0.000  0.000  0.000  0.099
  2  0.000  0.006  0.062  0.031  0.000  0.000  0.000  0.000  0.000  0.099
tot  0.000  0.011  0.124  0.062  0.000  0.000  0.000  0.000  0.000  0.197
 
band   7 # energy    9.00758061 # occ.  0.00000000
 
ion      s     py     pz     px    dxy    dyz    dz2    dxz    dx2    tot
  1  0.000  0.060  0.004  0.035  0.000  0.000  0.000  0.000  0.000  0.099
  2  0.000  0.060  0.004  0.035  0.000  0.000  0.000  0.000  0.000  0.099
tot  0.000  0.120  0.008  0.069  0.000  0.000  0.000  0.000  0.000  0.197
 
band   8 # energy   13.38074057 # occ.  0.00000000
 
ion      s     py     pz     px    dxy    dyz    dz2    dxz    dx2    tot
  1  0.004  0.021  0.021  0.021  0.000  0.000  0.000  0.000  0.000  0.066
  2  0.004  0.021  0.021  0.021  0.000  0.000  0.000  0.000  0.000  0.066
tot  0.009  0.041  0.041  0.041  0.000  0.000  0.000  0.000  0.000  0.133
 
band   9 # energy   15.04367726 # occ.  0.00000000
 
ion      s     py     pz     px    dxy    dyz    dz2    dxz    dx2    tot
  1  0.000  0.025  0.013  0.003  0.000  0.000  0.000  0.000  0.000  0.041
  2  0.000  0.025  0.013  0.003  0.000  0.000  0.000  0.000  0.000  0.041
tot  0.000  0.050  0.025  0.006  0.000  0.000  0.000  0.000  0.000  0.081
 
band  10 # energy   15.04368205 # occ.  0.00000000
 
ion      s     py     pz     px    dxy    dyz    dz2    dxz    dx2    tot
  1  0.000  0.002  0.015  0.024  0.000  0.000  0.000  0.000  0.000  0.041
  2  0.000  0.002  0.015  0.024  0.000  0.000  0.000  0.000  0.000  0.041
tot  0.000  0.004  0.029  0.048  0.000  0.000  0.000  0.000  0.000  0.082
 
band  11 # energy   16.00798974 # occ.  0.00000000
 
ion      s     py     pz     px    dxy    dyz    dz2    dxz    dx2    tot
  1  0.075  0.045  0.045  0.045  0.000  0.000  0.000  0.000  0.000  0.211
  2  0.075  0.045  0.045  0.045  0.000  0.000  0.000  0.000  0.000  0.211
tot  0.150  0.091  0.091  0.091  0.000  0.000  0.000  0.000  0.000  0.422
 
band  12 # energy   18.06440052 # occ.  0.00000000
 
ion      s     py     pz     px    dxy    dyz    dz2    dxz    dx2    tot
  1  0.000  0.044  0.022  0.005  0.000  0.000  0.000  0.000  0.000  0.071
  2  0.000  0.044  0.022  0.005  0.000  0.000  0.000  0.000  0.000  0.071
tot  0.000  0.088  0.044  0.011  0.000  0.000  0.000  0.000  0.000  0.142
 

 k-point    5 :    0.14285714 0.14285714 0.00000000     weight = 0.01749271

band   1 # energy   -5.84483523 # occ.  1.00000000
 
ion      s     py     pz     px    dxy    dyz    dz2    dxz    dx2    tot
  1  0.210  0.000  0.000  0.004  0.000  0.000  0.000  0.000  0.000  0.214
  2  0.210  0.000  0.000  0.004  0.000  0.000  0.000  0.000  0.000  0.214
tot  0.420  0.000  0.000  0.008  0.000  0.000  0.000  0.000  0.000  0.428
 
band   2 # energy    3.97367318 # occ.  1.00000000
 
ion      s     py     pz     px    dxy    dyz    dz2    dxz    dx2    tot
  1  0.112  0.000  0.000  0.135  0.000  0.000  0.000  0.000  0.000  0.246
  2  0.112  0.000  0.000  0.135  0.000  0.000  0.000  0.000  0.000  0.246
tot  0.223  0.000  0.000  0.269  0.000  0.000  0.000  0.000  0.000  0.493
 
band   3 # energy    4.67165992 # occ.  1.00000000
 
ion      s     py     pz     px    dxy    dyz    dz2    dxz    dx2    tot
  1  0.000  0.106  0.094  0.000  0.000  0.000  0.000  0.000  0.000  0.200
  2  0.000  0.077  0.123  0.000  0.000  0.000  0.000  0.000  0.000  0.200
tot  0.000  0.183  0.217  0.000  0.000  0.000  0.000  0.000  0.000  0.401
 
band   4 # energy    4.67165993 # occ.  1.00000000
 
ion      s     py     pz     px    dxy    dyz    dz2    dxz    dx2    tot
  1  0.000  0.094  0.106  0.000  0.000  0.000  0.000  0.000  0.000  0.200
  2  0.000  0.123  0.077  0.000  0.000  0.000  0.000  0.000  0.000  0.200
tot  0.000  0.217  0.183  0.000  0.000  0.000  0.000  0.000  0.000  0.401
 
band   5 # energy    7.50794314 # occ.  0.00000000
 
ion      s     py     pz     px    dxy    dyz    dz2    dxz    dx2    tot
  1  0.024  0.000  0.000  0.111  0.000  0.000  0.000  0.000  0.000  0.135
  2  0.024  0.000  0.000  0.111  0.000  0.000  0.000  0.000  0.000  0.135
tot  0.048  0.000  0.000  0.223  0.000  0.000  0.000  0.000  0.000  0.270
 
band   6 # energy    9.55510142 # occ.  0.00000000
 
ion      s     py     pz     px    dxy    dyz    dz2    dxz    dx2    tot
  1  0.000  0.050  0.114  0.000  0.000  0.000  0.000  0.000  0.000  0.164
  2  0.000  0.134  0.030  0.000  0.000  0.000  0.000  0.000  0.000  0.164
tot  0.000  0.184  0.144  0.000  0.000  0.000  0.000  0.000  0.000  0.328
 
band   7 # energy    9.55510146 # occ.  0.00000000
 
ion      s     py     pz     px    dxy    dyz    dz2    dxz    dx2    tot
  1  0.000  0.114  0.050  0.000  0.000  0.000  0.000  0.000  0.000  0.164
  2  0.000  0.030  0.134  0.000  0.000  0.000  0.000  0.000  0.000  0.164
tot  0.000  0.144  0.184  0.000  0.000  0.000  0.000  0.000  0.000  0.328
 
band   8 # energy    9.91235629 # occ.  0.00000000
 
ion      s     py     pz     px    dxy    dyz    dz2    dxz    dx2    tot
  1  0.183  0.000  0.000  0.079  0.000  0.000  0.000  0.000  0.000  0.262
  2  0.183  0.000  0.000  0.079  0.000  0.000  0.000  0.000  0.000  0.262
tot  0.366  0.000  0.000  0.158  0.000  0.000  0.000  0.000  0.000  0.523
 
band   9 # energy   12.03338226 # occ.  0.00000000
 
ion      s     py     pz     px    dxy    dyz    dz2    dxz    dx2    tot
  1  0.063  0.000  0.000  0.011  0.000  0.000  0.000  0.000  0.000  0.074
  2  0.063  0.000  0.000  0.011  0.000  0.000  0.000  0.000  0.000  0.074
tot  0.126  0.000  0.000  0.021  0.000  0.000  0.000  0.000  0.000  0.147
 
band  10 # energy   13.71831603 # occ.  0.00000000
 
ion      s     py     pz     px    dxy    dyz    dz2    dxz    dx2    tot
  1  0.000  0.000  0.000  0.000  0.000  0.000  0.000  0.000  0.000  0.000
  2  0.000  0.000  0.000  0.000  0.000  0.000  0.000  0.000  0.000  0.000
tot  0.000  0.000  0.000  0.000  0.000  0.000  0.000  0.000  0.000  0.000
 
band  11 # energy   14.85739057 # occ.  0.00000000
 
ion      s     py     pz     px    dxy    dyz    dz2    dxz    dx2    tot
  1  0.069  0.000  0.000  0.047  0.000  0.000  0.000  0.000  0.000  0.116
  2  0.069  0.000  0.000  0.047  0.000  0.000  0.000  0.000  0.000  0.116
tot  0.139  0.000  0.000  0.093  0.000  0.000  0.000  0.000  0.000  0.232
 
band  12 # energy   17.40916135 # occ.  0.00000000
 
ion      s     py     pz     px    dxy    dyz    dz2    dxz    dx2    tot
  1  0.000  0.011  0.024  0.000  0.000  0.000  0.000  0.000  0.000  0.035
  2  0.000  0.005  0.030  0.000  0.000  0.000  0.000  0.000  0.000  0.035
tot  0.000  0.016  0.055  0.000  0.000  0.000  0.000  0.000  0.000  0.070
 

 k-point    6 :    0.28571429 0.14285714 0.00000000     weight = 0.06997085

band   1 # energy   -5.24865528 # occ.  1.00000000
 
ion      s     py     pz     px    dxy    dyz    dz2    dxz    dx2    tot
  1  0.208  0.001  0.001  0.008  0.000  0.000  0.000  0.000  0.000  0.218
  2  0.208  0.001  0.001  0.008  0.000  0.000  0.000  0.000  0.000  0.218
tot  0.416  0.002  0.002  0.016  0.000  0.000  0.000  0.000  0.000  0.436
 
band   2 # energy    1.88853631 # occ.  1.00000000
 
ion      s     py     pz     px    dxy    dyz    dz2    dxz    dx2    tot
  1  0.119  0.029  0.029  0.053  0.000  0.000  0.000  0.000  0.000  0.230
  2  0.119  0.029  0.029  0.053  0.000  0.000  0.000  0.000  0.000  0.230
tot  0.237  0.058  0.058  0.107  0.000  0.000  0.000  0.000  0.000  0.460
 
band   3 # energy    4.08962956 # occ.  1.00000000
 
ion      s     py     pz     px    dxy    dyz    dz2    dxz    dx2    tot
  1  0.030  0.049  0.049  0.078  0.000  0.000  0.000  0.000  0.000  0.205
  2  0.030  0.049  0.049  0.078  0.000  0.000  0.000  0.000  0.000  0.205
tot  0.059  0.097  0.097  0.156  0.000  0.000  0.000  0.000  0.000  0.409
 
band   4 # energy    4.13821444 # occ.  1.00000000
 
ion      s     py     pz     px    dxy    dyz    dz2    dxz    dx2    tot
  1  0.000  0.100  0.100  0.000  0.000  0.000  0.000  0.000  0.000  0.200
  2  0.000  0.100  0.100  0.000  0.000  0.000  0.000  0.000  0.000  0.200
tot  0.000  0.200  0.200  0.000  0.000  0.000  0.000  0.000  0.000  0.399
 
band   5 # energy    7.69616488 # occ.  0.00000000
 
ion      s     py     pz     px    dxy    dyz    dz2    dxz    dx2    tot
  1  0.036  0.012  0.012  0.077  0.000  0.000  0.000  0.000  0.000  0.136
  2  0.036  0.012  0.012  0.077  0.000  0.000  0.000  0.000  0.000  0.136
tot  0.071  0.024  0.024  0.153  0.000  0.000  0.000  0.000  0.000  0.273
 
band   6 # energy    9.44856682 # occ.  0.00000000
 
ion      s     py     pz     px    dxy    dyz    dz2    dxz    dx2    tot
  1  0.097  0.038  0.038  0.039  0.000  0.000  0.000  0.000  0.000  0.212
  2  0.097  0.038  0.038  0.039  0.000  0.000  0.000  0.000  0.000  0.212
tot  0.194  0.076  0.076  0.078  0.000  0.000  0.000  0.000  0.000  0.425
 
band   7 # energy   10.18182528 # occ.  0.00000000
 
ion      s     py     pz     px    dxy    dyz    dz2    dxz    dx2    tot
  1  0.007  0.027  0.027  0.008  0.000  0.000  0.000  0.000  0.000  0.068
  2  0.007  0.027  0.027  0.008  0.000  0.000  0.000  0.000  0.000  0.068
tot  0.013  0.053  0.053  0.017  0.000  0.000  0.000  0.000  0.000  0.136
 
band   8 # energy   10.33332404 # occ.  0.00000000
 
ion      s     py     pz     px    dxy    dyz    dz2    dxz    dx2    tot
  1  0.000  0.075  0.075  0.000  0.000  0.000  0.000  0.000  0.000  0.150
  2  0.000  0.075  0.075  0.000  0.000  0.000  0.000  0.000  0.000  0.150
tot  0.000  0.150  0.150  0.000  0.000  0.000  0.000  0.000  0.000  0.300
 
band   9 # energy   13.63422783 # occ.  0.00000000
 
ion      s     py     pz     px    dxy    dyz    dz2    dxz    dx2    tot
  1  0.100  0.021  0.021  0.069  0.000  0.000  0.000  0.000  0.000  0.212
  2  0.100  0.021  0.021  0.069  0.000  0.000  0.000  0.000  0.000  0.212
tot  0.200  0.042  0.042  0.138  0.000  0.000  0.000  0.000  0.000  0.424
 
band  10 # energy   14.09434065 # occ.  0.00000000
 
ion      s     py     pz     px    dxy    dyz    dz2    dxz    dx2    tot
  1  0.000  0.007  0.007  0.000  0.000  0.000  0.000  0.000  0.000  0.014
  2  0.000  0.007  0.007  0.000  0.000  0.000  0.000  0.000  0.000  0.014
tot  0.000  0.014  0.014  0.000  0.000  0.000  0.000  0.000  0.000  0.028
 
band  11 # energy   15.76266178 # occ.  0.00000000
 
ion      s     py     pz     px    dxy    dyz    dz2    dxz    dx2    tot
  1  0.028  0.008  0.008  0.040  0.000  0.000  0.000  0.000  0.000  0.085
  2  0.028  0.008  0.008  0.040  0.000  0.000  0.000  0.000  0.000  0.085
tot  0.057  0.017  0.017  0.081  0.000  0.000  0.000  0.000  0.000  0.171
 
band  12 # energy   17.60772732 # occ.  0.00000000
 
ion      s     py     pz     px    dxy    dyz    dz2    dxz    dx2    tot
  1  0.027  0.009  0.009  0.036  0.000  0.000  0.000  0.000  0.000  0.080
  2  0.027  0.009  0.009  0.036  0.000  0.000  0.000  0.000  0.000  0.080
tot  0.053  0.017  0.017  0.073  0.000  0.000  0.000  0.000  0.000  0.160
 

 k-point    7 :    0.42857143 0.14285714 0.00000000     weight = 0.06997085

band   1 # energy   -4.25980748 # occ.  1.00000000
 
ion      s     py     pz     px    dxy    dyz    dz2    dxz    dx2    tot
  1  0.210  0.003  0.003  0.012  0.000  0.000  0.000  0.000  0.000  0.227
  2  0.210  0.003  0.003  0.012  0.000  0.000  0.000  0.000  0.000  0.227
tot  0.421  0.005  0.005  0.023  0.000  0.000  0.000  0.000  0.000  0.455
 
band   2 # energy   -0.25646232 # occ.  1.00000000
 
ion      s     py     pz     px    dxy    dyz    dz2    dxz    dx2    tot
  1  0.122  0.030  0.030  0.031  0.000  0.000  0.000  0.000  0.000  0.213
  2  0.122  0.030  0.030  0.031  0.000  0.000  0.000  0.000  0.000  0.213
tot  0.244  0.060  0.060  0.062  0.000  0.000  0.000  0.000  0.000  0.425
 
band   3 # energy    3.41075892 # occ.  1.00000000
 
ion      s     py     pz     px    dxy    dyz    dz2    dxz    dx2    tot
  1  0.040  0.034  0.034  0.095  0.000  0.000  0.000  0.000  0.000  0.202
  2  0.040  0.034  0.034  0.095  0.000  0.000  0.000  0.000  0.000  0.202
tot  0.079  0.067  0.067  0.190  0.000  0.000  0.000  0.000  0.000  0.404
 
band   4 # energy    3.95087550 # occ.  1.00000000
 
ion      s     py     pz     px    dxy    dyz    dz2    dxz    dx2    tot
  1  0.000  0.102  0.102  0.000  0.000  0.000  0.000  0.000  0.000  0.203
  2  0.000  0.102  0.102  0.000  0.000  0.000  0.000  0.000  0.000  0.203
tot  0.000  0.203  0.203  0.000  0.000  0.000  0.000  0.000  0.000  0.407
 
band   5 # energy    7.75292495 # occ.  0.00000000
 
ion      s     py     pz     px    dxy    dyz    dz2    dxz    dx2    tot
  1  0.067  0.005  0.005  0.060  0.000  0.000  0.000  0.000  0.000  0.137
  2  0.067  0.005  0.005  0.060  0.000  0.000  0.000  0.000  0.000  0.137
tot  0.135  0.010  0.010  0.119  0.000  0.000  0.000  0.000  0.000  0.273
 
band   6 # energy    9.39894200 # occ.  0.00000000
 
ion      s     py     pz     px    dxy    dyz    dz2    dxz    dx2    tot
  1  0.059  0.036  0.036  0.031  0.000  0.000  0.000  0.000  0.000  0.162
  2  0.059  0.036  0.036  0.031  0.000  0.000  0.000  0.000  0.000  0.162
tot  0.118  0.072  0.072  0.062  0.000  0.000  0.000  0.000  0.000  0.324
 
band   7 # energy   10.13429199 # occ.  0.00000000
 
ion      s     py     pz     px    dxy    dyz    dz2    dxz    dx2    tot
  1  0.000  0.057  0.057  0.000  0.000  0.000  0.000  0.000  0.000  0.114
  2  0.000  0.057  0.057  0.000  0.000  0.000  0.000  0.000  0.000  0.114
tot  0.000  0.114  0.114  0.000  0.000  0.000  0.000  0.000  0.000  0.227
 
band   8 # energy   11.36768215 # occ.  0.00000000
 
ion      s     py     pz     px    dxy    dyz    dz2    dxz    dx2    tot
  1  0.021  0.033  0.033  0.020  0.000  0.000  0.000  0.000  0.000  0.107
  2  0.021  0.033  0.033  0.020  0.000  0.000  0.000  0.000  0.000  0.107
tot  0.042  0.066  0.066  0.041  0.000  0.000  0.000  0.000  0.000  0.214
 
band   9 # energy   15.03517586 # occ.  0.00000000
 
ion      s     py     pz     px    dxy    dyz    dz2    dxz    dx2    tot
  1  0.005  0.014  0.014  0.029  0.000  0.000  0.000  0.000  0.000  0.061
  2  0.005  0.014  0.014  0.029  0.000  0.000  0.000  0.000  0.000  0.061
tot  0.010  0.028  0.028  0.058  0.000  0.000  0.000  0.000  0.000  0.123
 
band  10 # energy   15.79472800 # occ.  0.00000000
 
ion      s     py     pz     px    dxy    dyz    dz2    dxz    dx2    tot
  1  0.000  0.016  0.016  0.000  0.000  0.000  0.000  0.000  0.000  0.032
  2  0.000  0.016  0.016  0.000  0.000  0.000  0.000  0.000  0.000  0.032
tot  0.000  0.032  0.032  0.000  0.000  0.000  0.000  0.000  0.000  0.063
 
band  11 # energy   16.38962726 # occ.  0.00000000
 
ion      s     py     pz     px    dxy    dyz    dz2    dxz    dx2    tot
  1  0.065  0.017  0.017  0.104  0.000  0.000  0.000  0.000  0.000  0.204
  2  0.065  0.017  0.017  0.104  0.000  0.000  0.000  0.000  0.000  0.204
tot  0.131  0.035  0.035  0.208  0.000  0.000  0.000  0.000  0.000  0.408
 
band  12 # energy   17.74998658 # occ.  0.00000000
 
ion      s     py     pz     px    dxy    dyz    dz2    dxz    dx2    tot
  1  0.000  0.037  0.037  0.000  0.000  0.000  0.000  0.000  0.000  0.075