bin
blk
dev
examples
Jup
prework
vasp
windows
y2s
 running on    4 total cores
 distrk:  each k-point on    4 cores,    1 groups
 distr:  one band on    1 cores,    4 groups
 using from now: INCAR     
 vasp.5.3.5 31Mar14 (build Jun 21 2016 10:20:01) complex                        
  
 POSCAR found type information on POSCAR  Si
 POSCAR found :  1 types and       2 ions
 scaLAPACK will be used

 ----------------------------------------------------------------------------- 
|                                                                             |
|  ADVICE TO THIS USER RUNNING 'VASP/VAMP'   (HEAR YOUR MASTER'S VOICE ...):  |
|                                                                             |
|      You have a (more or less) 'small supercell' and for smaller cells      |
|      it is recommended  to use the reciprocal-space projection scheme!      |
|      The real space optimization is not  efficient for small cells and it   |
|      is also less accurate ...                                              |
|      Therefore set LREAL=.FALSE. in the  INCAR file                         |
|                                                                             |
 ----------------------------------------------------------------------------- 

 LDA part: xc-table for Pade appr. of Perdew
 POSCAR found type information on POSCAR  Si
 POSCAR found :  1 types and       2 ions
 POSCAR, INCAR and KPOINTS ok, starting setup
 WARNING: small aliasing (wrap around) errors must be expected
 FFT: planning ...
 WAVECAR not read
 WARNING: chargedensity file is incomplete
 entering main loop
       N       E                     dE             d eps       ncg     rms          rms(c)
DAV:   1     0.613119286191E+01    0.61312E+01   -0.28957E+03   960   0.478E+02
DAV:   2    -0.102565530853E+02   -0.16388E+02   -0.15736E+02  1204   0.814E+01
DAV:   3    -0.108198846129E+02   -0.56333E+00   -0.56153E+00  1216   0.121E+01
DAV:   4    -0.108239478926E+02   -0.40633E-02   -0.40630E-02  1116   0.133E+00
DAV:   5    -0.108239864040E+02   -0.38511E-04   -0.38511E-04  1264   0.122E-01    0.553E+00
RMM:   6    -0.108613526349E+02   -0.37366E-01   -0.61417E-02   960   0.127E+00    0.327E+00
RMM:   7    -0.107934321270E+02    0.67921E-01   -0.60225E-02   960   0.127E+00    0.203E+00
RMM:   8    -0.108115582127E+02   -0.18126E-01   -0.91898E-03   960   0.559E-01    0.452E-01
RMM:   9    -0.108131921797E+02   -0.16340E-02   -0.49264E-04   960   0.134E-01    0.107E-01
RMM:  10    -0.108135755603E+02   -0.38338E-03   -0.45591E-04   946   0.109E-01    0.485E-02
RMM:  11    -0.108136372127E+02   -0.61652E-04   -0.66232E-05   629   0.431E-02
   1 F= -.10813637E+02 E0= -.10813637E+02  d E =-.108136E+02  mag=     0.0005
 curvature:   0.00 expect dE= 0.000E+00 dE for cont linesearch  0.000E+00
 trial: gam= 0.00000 g(F)=  0.739E-50 g(S)=  0.990E-01 ort = 0.000E+00 (trialstep = 0.100E+01)
 search vector abs. value=  0.990E-01
 bond charge predicted
       N       E                     dE             d eps       ncg     rms          rms(c)
DAV:   1    -0.108646845955E+02   -0.51109E-01   -0.12840E+00  1044   0.453E+00    0.108E+00
RMM:   2    -0.108407595659E+02    0.23925E-01   -0.22827E-02   960   0.802E-01    0.713E-01
RMM:   3    -0.108276498892E+02    0.13110E-01   -0.15577E-02   960   0.518E-01    0.178E-01
RMM:   4    -0.108276631275E+02   -0.13238E-04   -0.26116E-04   832   0.993E-02    0.154E-01
RMM:   5    -0.108276421709E+02    0.20957E-04   -0.43940E-05   605   0.428E-02
   2 F= -.10827642E+02 E0= -.10827642E+02  d E =-.140050E-01  mag=     0.0001
 trial-energy change:   -0.014005  1 .order   -0.017292   -0.099048    0.064464
 step:   0.5763(harm=  0.6058)  dis= 0.00000  next Energy=   -10.841549 (dE=-0.279E-01)
 bond charge predicted
       N       E                     dE             d eps       ncg     rms          rms(c)
DAV:   1    -0.108477828878E+02   -0.20120E-01   -0.24028E-01  1036   0.200E+00    0.448E-01
RMM:   2    -0.108435309278E+02    0.42520E-02   -0.44988E-03   960   0.350E-01    0.297E-01
RMM:   3    -0.108412013431E+02    0.23296E-02   -0.28064E-03   960   0.222E-01    0.827E-02
RMM:   4    -0.108412046062E+02   -0.32631E-05   -0.40726E-05   591   0.428E-02    0.694E-02
RMM:   5    -0.108412091729E+02   -0.45666E-05   -0.12539E-05   509   0.241E-02
   3 F= -.10841209E+02 E0= -.10841209E+02  d E =-.275720E-01  mag=     0.0000
 curvature:  -0.30 expect dE=-0.242E-05 dE for cont linesearch -0.242E-05
 trial: gam= 0.00000 g(F)=  0.376E-49 g(S)=  0.803E-05 ort =-0.892E-03 (trialstep = 0.915E+00)
 search vector abs. value=  0.803E-05
 reached required accuracy - stopping structural energy minimisation
