<?xml version="1.0" encoding="ISO-8859-1"?>
<modeling>
 <generator>
  <i name="program" type="string">vasp </i>
  <i name="version" type="string">5.3.5  </i>
  <i name="subversion" type="string">31Mar14 (build Jun 21 2016 10:20:01) complex                          parallel </i>
  <i name="platform" type="string">LinuxIFC </i>
  <i name="date" type="string">2018 11 01 </i>
  <i name="time" type="string">15:39:54 </i>
 </generator>
 <incar>
  <i type="string" name="PREC">accurate</i>
  <i type="string" name="ALGO"> Fast</i>
  <i type="int" name="ISPIN">     2</i>
  <i type="int" name="ICHARG">     1</i>
  <i type="int" name="NELM">   100</i>
  <i type="int" name="NELMIN">     5</i>
  <i type="int" name="IBRION">     2</i>
  <i name="EDIFF">      0.00010000</i>
  <i type="int" name="NSW">    99</i>
  <i type="int" name="ISIF">     3</i>
  <i name="ENCUT">    520.00000000</i>
  <v name="MAGMOM">      0.60000000      0.60000000</v>
  <i type="string" name="LREAL"> Auto</i>
  <i type="int" name="ISMEAR">    -5</i>
  <i name="SIGMA">      0.05000000</i>
  <i type="logical" name="LWAVE"> F  </i>
  <i type="logical" name="LORBIT"> F  </i>
  <i type="int" name="NELM">   100</i>
 </incar>
 <kpoints>
  <generation param="Gamma">
   <v type="int" name="divisions">       7        7        7 </v>
   <v name="usershift">      0.00000000       0.00000000       0.00000000 </v>
   <v name="genvec1">      0.14285714       0.00000000       0.00000000 </v>
   <v name="genvec2">      0.00000000       0.14285714       0.00000000 </v>
   <v name="genvec3">      0.00000000       0.00000000       0.14285714 </v>
   <v name="shift">      0.00000000       0.00000000       0.00000000 </v>
  </generation>
  <varray name="kpointlist" >
   <v>       0.00000000       0.00000000       0.00000000 </v>
   <v>       0.14285714       0.00000000       0.00000000 </v>
   <v>       0.28571429       0.00000000       0.00000000 </v>
   <v>       0.42857143       0.00000000       0.00000000 </v>
   <v>       0.14285714       0.14285714       0.00000000 </v>
   <v>       0.28571429       0.14285714       0.00000000 </v>
   <v>       0.42857143       0.14285714       0.00000000 </v>
   <v>      -0.42857143       0.14285714       0.00000000 </v>
   <v>      -0.28571429       0.14285714       0.00000000 </v>
   <v>      -0.14285714       0.14285714       0.00000000 </v>
   <v>       0.28571429       0.28571429       0.00000000 </v>
   <v>       0.42857143       0.28571429       0.00000000 </v>
   <v>      -0.42857143       0.28571429       0.00000000 </v>
   <v>      -0.28571429       0.28571429       0.00000000 </v>
   <v>       0.42857143       0.42857143       0.00000000 </v>
   <v>      -0.42857143       0.42857143       0.00000000 </v>
   <v>       0.42857143       0.28571429       0.14285714 </v>
   <v>      -0.42857143       0.28571429       0.14285714 </v>
   <v>      -0.42857143       0.42857143       0.14285714 </v>
   <v>      -0.28571429       0.42857143       0.14285714 </v>
  </varray>
  <varray name="weights" >
   <v>       0.00291545 </v>
   <v>       0.02332362 </v>
   <v>       0.02332362 </v>
   <v>       0.02332362 </v>
   <v>       0.01749271 </v>
   <v>       0.06997085 </v>
   <v>       0.06997085 </v>
   <v>       0.06997085 </v>
   <v>       0.06997085 </v>
   <v>       0.03498542 </v>
   <v>       0.01749271 </v>
   <v>       0.06997085 </v>
   <v>       0.06997085 </v>
   <v>       0.03498542 </v>
   <v>       0.01749271 </v>
   <v>       0.03498542 </v>
   <v>       0.06997085 </v>
   <v>       0.13994169 </v>
   <v>       0.06997085 </v>
   <v>       0.06997085 </v>
  </varray>
  <varray name="tetrahedronlist"  type="int" >
   <v type="int" >       24        1        2        2        5 </v>
   <v type="int" >       48        2        5        6       10 </v>
   <v type="int" >       48        2        3        6       10 </v>
   <v type="int" >       24        2        2        5       10 </v>
   <v type="int" >       48        3        6        7        9 </v>
   <v type="int" >       48        3        4        7        9 </v>
   <v type="int" >       48        3        6        9       10 </v>
   <v type="int" >       48        4        7        8        8 </v>
   <v type="int" >       24        4        4        8        8 </v>
   <v type="int" >       48        4        7        8        9 </v>
   <v type="int" >       24        5        6        6       11 </v>
   <v type="int" >       24        5        6        6       10 </v>
   <v type="int" >       48        6       11       12       17 </v>
   <v type="int" >       48        6        7       12       17 </v>
   <v type="int" >       48        6        7        9       17 </v>
   <v type="int" >       24        6        6       11       17 </v>
   <v type="int" >       24        6        6       10       17 </v>
   <v type="int" >       48        6        9       10       17 </v>
   <v type="int" >       48        7       12       13       18 </v>
   <v type="int" >       48        7        8       13       18 </v>
   <v type="int" >       48        7        8        8       18 </v>
   <v type="int" >       48        7       12       17       18 </v>
   <v type="int" >       48        7        9       17       18 </v>
   <v type="int" >       48        7        8        9       18 </v>
   <v type="int" >       48        8       13       14       18 </v>
   <v type="int" >       48        8        9       14       18 </v>
   <v type="int" >       48        8       13       18       18 </v>
   <v type="int" >       24        8        8       18       18 </v>
   <v type="int" >       24        9        9       14       17 </v>
   <v type="int" >       24        9        9       10       17 </v>
   <v type="int" >       48        9       14       17       18 </v>
   <v type="int" >       24       11       12       12       15 </v>
   <v type="int" >       24       11       12       12       17 </v>
   <v type="int" >       48       12       15       16       19 </v>
   <v type="int" >       48       12       13       16       19 </v>
   <v type="int" >       48       12       13       18       19 </v>
   <v type="int" >       24       12       12       15       19 </v>
   <v type="int" >       24       12       12       17       19 </v>
   <v type="int" >       48       12       17       18       19 </v>
   <v type="int" >       24       13       13       16       20 </v>
   <v type="int" >       24       13       13       14       20 </v>
   <v type="int" >       48       13       14       18       20 </v>
   <v type="int" >       48       13       16       19       20 </v>
   <v type="int" >       48       13       18       19       20 </v>
   <v type="int" >       48       13       18       18       20 </v>
   <v type="int" >       24       14       18       18       20 </v>
   <v type="int" >       24       14       17       18       18 </v>
   <v type="int" >       12       15       15       16       16 </v>
   <v type="int" >       24       15       16       16       19 </v>
   <v type="int" >       12       16       16       19       19 </v>
   <v type="int" >       24       16       19       19       20 </v>
   <v type="int" >       24       17       18       18       19 </v>
   <v type="int" >       48       18       19       20       20 </v>
   <v type="int" >       24       18       18       20       20 </v>
   <v type="int" >       24       18       18       19       20 </v>
   <v type="int" >       12       19       19       20       20 </v>
   <v type="int" >       24       19       20       20       20 </v>
   <v type="int" >        6       20       20       20       20 </v>
  </varray>
  <i name="volumeweight">      0.00048591 </i>
 </kpoints>
 <parameters>
  <separator name="general" >
   <i type="string" name="SYSTEM">unknown system</i>
   <i type="logical" name="LCOMPAT"> F  </i>
  </separator>
  <separator name="electronic" >
   <i type="string" name="PREC">accura</i>
   <i name="ENMAX">    520.00000000</i>
   <i name="ENAUG">    322.06900000</i>
   <i name="EDIFF">      0.00010000</i>
   <i type="int" name="IALGO">    68</i>
   <i type="int" name="IWAVPR">    11</i>
   <i type="int" name="NBANDS">    12</i>
   <i name="NELECT">      8.00000000</i>
   <i type="int" name="TURBO">     0</i>
   <i type="int" name="IRESTART">     0</i>
   <i type="int" name="NREBOOT">     0</i>
   <i type="int" name="NMIN">     0</i>
   <i name="EREF">      0.00000000</i>
   <separator name="electronic smearing" >
    <i type="int" name="ISMEAR">    -5</i>
    <i name="SIGMA">      0.05000000</i>
    <i name="KSPACING">      0.50000000</i>
    <i type="logical" name="KGAMMA"> T  </i>
   </separator>
   <separator name="electronic projectors" >
    <i type="logical" name="LREAL"> T  </i>
    <v name="ROPT">     -0.00025000</v>
    <i type="int" name="LMAXPAW">  -100</i>
    <i type="int" name="LMAXMIX">     2</i>
    <i type="logical" name="NLSPLINE"> F  </i>
   </separator>
   <separator name="electronic startup" >
    <i type="int" name="ISTART">     0</i>
    <i type="int" name="ICHARG">     1</i>
    <i type="int" name="INIWAV">     1</i>
   </separator>
   <separator name="electronic spin" >
    <i type="int" name="ISPIN">     2</i>
    <i type="logical" name="LNONCOLLINEAR"> F  </i>
    <v name="MAGMOM">      0.60000000      0.60000000</v>
    <i name="NUPDOWN">     -1.00000000</i>
    <i type="logical" name="LSORBIT"> F  </i>
    <v name="SAXIS">      0.00000000      0.00000000      1.00000000</v>
    <i type="logical" name="LSPIRAL"> F  </i>
    <v name="QSPIRAL">      0.00000000      0.00000000      0.00000000</v>
    <i type="logical" name="LZEROZ"> F  </i>
   </separator>
   <separator name="electronic exchange-correlation" >
    <i type="logical" name="LASPH"> F  </i>
    <i type="logical" name="LMETAGGA"> F  </i>
   </separator>
   <separator name="electronic convergence" >
    <i type="int" name="NELM">   100</i>
    <i type="int" name="NELMDL">    -5</i>
    <i type="int" name="NELMIN">     5</i>
    <i name="ENINI">    520.00000000</i>
    <separator name="electronic convergence detail" >
     <i type="logical" name="LDIAG"> T  </i>
     <i type="logical" name="LSUBROT"> F  </i>
     <i name="WEIMIN">      0.00100000</i>
     <i name="EBREAK">      0.00000208</i>
     <i name="DEPER">      0.30000000</i>
     <i type="int" name="NRMM">     4</i>
     <i name="TIME">      0.40000000</i>
    </separator>
   </separator>
   <separator name="electronic mixer" >
    <i name="AMIX">      0.40000000</i>
    <i name="BMIX">      1.00000000</i>
    <i name="AMIN">      0.10000000</i>
    <i name="AMIX_MAG">      1.60000000</i>
    <i name="BMIX_MAG">      1.00000000</i>
    <separator name="electronic mixer details" >
     <i type="int" name="IMIX">     4</i>
     <i type="int" name="MAXMIX">   -45</i>
     <i name="WC">    100.00000000</i>
     <i type="int" name="INIMIX">     1</i>
     <i type="int" name="MIXPRE">     1</i>
     <i type="int" name="MREMOVE">     5</i>
    </separator>
   </separator>
   <separator name="electronic dipolcorrection" >
    <i type="logical" name="LDIPOL"> F  </i>
    <i type="logical" name="LMONO"> F  </i>
    <i type="int" name="IDIPOL">     0</i>
    <i name="EPSILON">      1.00000000</i>
    <v name="DIPOL">   -100.00000000   -100.00000000   -100.00000000</v>
    <i name="EFIELD">      0.00000000</i>
   </separator>
  </separator>
  <separator name="grids" >
   <i type="int" name="NGX">    28</i>
   <i type="int" name="NGY">    28</i>
   <i type="int" name="NGZ">    28</i>
   <i type="int" name="NGXF">    56</i>
   <i type="int" name="NGYF">    56</i>
   <i type="int" name="NGZF">    56</i>
   <i type="logical" name="ADDGRID"> F  </i>
  </separator>
  <separator name="ionic" >
   <i type="int" name="NSW">    99</i>
   <i type="int" name="IBRION">     2</i>
   <i type="int" name="ISIF">     3</i>
   <i name="PSTRESS">      0.00000000</i>
   <i name="EDIFFG">      0.00100000</i>
   <i type="int" name="NFREE">     1</i>
   <i name="POTIM">      0.50000000</i>
   <i name="SMASS">     -3.00000000</i>
   <i name="SCALEE">      1.00000000</i>
  </separator>
  <separator name="ionic md" >
   <i name="TEBEG">      0.00010000</i>
   <i name="TEEND">      0.00010000</i>
   <i type="int" name="NBLOCK">     1</i>
   <i type="int" name="KBLOCK">    99</i>
   <i type="int" name="NPACO">   256</i>
   <i name="APACO">     16.00000000</i>
  </separator>
  <separator name="symmetry" >
   <i type="int" name="ISYM">     2</i>
   <i name="SYMPREC">      0.00001000</i>
  </separator>
  <separator name="dos" >
   <i type="logical" name="LORBIT"> F  </i>
   <v name="RWIGS">     -1.00000000</v>
   <i type="int" name="NEDOS">   301</i>
   <i name="EMIN">     10.00000000</i>
   <i name="EMAX">    -10.00000000</i>
   <i name="EFERMI">      0.00000000</i>
  </separator>
  <separator name="writing" >
   <i type="int" name="NWRITE">     2</i>
   <i type="logical" name="LWAVE"> F  </i>
   <i type="logical" name="LCHARG"> T  </i>
   <i type="logical" name="LPARD"> F  </i>
   <i type="logical" name="LVTOT"> F  </i>
   <i type="logical" name="LVHAR"> F  </i>
   <i type="logical" name="LELF"> F  </i>
   <i type="logical" name="LOPTICS"> F  </i>
   <v name="STM">      0.00000000      0.00000000      0.00000000      0.00000000      0.00000000      0.00000000      0.00000000</v>
  </separator>
  <separator name="performance" >
   <i type="int" name="NPAR">     4</i>
   <i type="int" name="NSIM">     4</i>
   <i type="int" name="NBLK">    -1</i>
   <i type="logical" name="LPLANE"> T  </i>
   <i type="logical" name="LSCALAPACK"> T  </i>
   <i type="logical" name="LSCAAWARE"> F  </i>
   <i type="logical" name="LSCALU"> F  </i>
   <i type="logical" name="LASYNC"> F  </i>
   <i type="logical" name="LORBITALREAL"> F  </i>
  </separator>
  <separator name="miscellaneous" >
   <i type="int" name="IDIOT">     3</i>
   <i type="logical" name="LMUSIC"> F  </i>
   <v name="POMASS">     28.08500000</v>
   <v name="DARWINR">      0.00000000</v>
   <v name="DARWINV">      1.00000000</v>
   <i type="logical" name="LCORR"> T  </i>
  </separator>
  <i type="logical" name="GGA_COMPAT"> T  </i>
  <i type="logical" name="LBERRY"> F  </i>
  <i type="int" name="ICORELEVEL">     0</i>
  <i type="logical" name="LDAU"> F  </i>
  <i type="int" name="I_CONSTRAINED_M">     0</i>
  <separator name="electronic exchange-correlation" >
   <i type="string" name="GGA">--</i>
   <i type="int" name="VOSKOWN">     0</i>
   <i type="logical" name="LHFCALC"> F  </i>
   <i type="string" name="PRECFOCK"></i>
   <i type="logical" name="LSYMGRAD"> F  </i>
   <i type="logical" name="LHFONE"> F  </i>
   <i type="logical" name="LRHFCALC"> F  </i>
   <i type="logical" name="LTHOMAS"> F  </i>
   <i type="logical" name="LMODELHF"> F  </i>
   <i name="ENCUT4O">     -1.00000000</i>
   <i type="int" name="EXXOEP">     0</i>
   <i type="int" name="FOURORBIT">     0</i>
   <i name="AEXX">      0.00000000</i>
   <i name="HFALPHA">      0.00000000</i>
   <i name="MCALPHA">      0.00000000</i>
   <i name="ALDAX">      1.00000000</i>
   <i name="AGGAX">      1.00000000</i>
   <i name="ALDAC">      1.00000000</i>
   <i name="AGGAC">      1.00000000</i>
   <i type="int" name="NKREDX">     1</i>
   <i type="int" name="NKREDY">     1</i>
   <i type="int" name="NKREDZ">     1</i>
   <i type="logical" name="SHIFTRED"> F  </i>
   <i type="logical" name="ODDONLY"> F  </i>
   <i type="logical" name="EVENONLY"> F  </i>
   <i type="int" name="LMAXFOCK">     0</i>
   <i type="int" name="NMAXFOCKAE">     0</i>
   <i type="logical" name="LFOCKAEDFT"> F  </i>
   <i name="HFSCREEN">      0.00000000</i>
   <i name="HFSCREENC">      0.00000000</i>
   <i type="int" name="NBANDSGWLOW">     0</i>
  </separator>
  <separator name="vdW DFT" >
   <i type="logical" name="LUSE_VDW"> F  </i>
   <i name="Zab_VDW">     -0.84910000</i>
   <i name="PARAM1">      0.12340000</i>
   <i name="PARAM2">      1.00000000</i>
   <i name="PARAM3">      0.00000000</i>
  </separator>
  <separator name="model GW" >
   <i type="int" name="MODEL_GW">     0</i>
   <i name="MODEL_EPS0">     11.68557910</i>
   <i name="MODEL_ALPHA">      1.00000000</i>
  </separator>
  <separator name="linear response parameters" >
   <i type="logical" name="LEPSILON"> F  </i>
   <i type="logical" name="LRPA"> F  </i>
   <i type="logical" name="LNABLA"> F  </i>
   <i type="logical" name="LVEL"> F  </i>
   <i type="int" name="KINTER">     0</i>
   <i name="CSHIFT">      0.10000000</i>
   <i name="OMEGAMAX">     -1.00000000</i>
   <i name="DEG_THRESHOLD">      0.00200000</i>
  </separator>
  <separator name="orbital magnetization" >
   <i type="logical" name="NUCIND"> F  </i>
   <v name="MAGPOS">      0.00000000      0.00000000      0.00000000</v>
   <i type="logical" name="LNICSALL"> T  </i>
   <i type="logical" name="ORBITALMAG"> F  </i>
   <i type="logical" name="LMAGBLOCH"> F  </i>
   <i type="logical" name="LCHIMAG"> F  </i>
   <i type="logical" name="LGAUGE"> T  </i>
   <i type="int" name="MAGATOM">     0</i>
   <v name="MAGDIPOL">      0.00000000      0.00000000      0.00000000</v>
   <v name="AVECCONST">      0.00000000      0.00000000      0.00000000</v>
  </separator>
  <separator name="response functions" >
   <i type="logical" name="LADDER"> F  </i>
   <i type="logical" name="LFXC"> F  </i>
   <i type="logical" name="LHARTREE"> T  </i>
   <i type="int" name="IBSE">     0</i>
   <i type="logical" name="LTCTE"> F  </i>
   <i type="logical" name="LTETE"> F  </i>
   <i type="logical" name="LTRIPLET"> F  </i>
   <i type="logical" name="LFXCEPS"> F  </i>
   <i type="logical" name="LFXHEG"> F  </i>
   <i type="logical" name="L2ORDER"> F  </i>
   <i type="logical" name="LUSEW"> F  </i>
   <i name="ENCUTGW">     -2.00000000</i>
   <i name="ENCUTGWSOFT">     -2.00000000</i>
   <i name="ENCUTLF">     -1.00000000</i>
   <i type="int" name="LMAXMP2">    -1</i>
   <i name="SCISSOR">      0.00000000</i>
   <i type="int" name="NOMEGA">     0</i>
   <i type="int" name="NOMEGAR">     0</i>
   <i type="int" name="NBANDSGW">    -1</i>
   <i type="int" name="NBANDSO">    -1</i>
   <i type="int" name="NBANDSV">    -1</i>
   <i type="int" name="NELM">   100</i>
   <i type="int" name="DIM">     3</i>
   <i type="int" name="ANTIRES">     0</i>
   <i name="OMEGAMAX">    -30.00000000</i>
   <i name="OMEGAMIN">    -30.00000000</i>
   <i name="OMEGATL">   -200.00000000</i>
   <i type="int" name="OMEGAGRID">     0</i>
   <i name="CSHIFT">     -0.10000000</i>
   <i type="logical" name="SELFENERGY"> F  </i>
   <i type="logical" name="LSPECTRAL"> F  </i>
   <i type="logical" name="ODDONLYGW"> F  </i>
   <i type="logical" name="EVENONLYGW"> F  </i>
   <i type="int" name="NKREDLFX">     1</i>
   <i type="int" name="NKREDLFY">     1</i>
   <i type="int" name="NKREDLFZ">     1</i>
   <i type="int" name="MAXMEM">  1800</i>
   <i type="int" name="TELESCOPE">     0</i>
   <i type="int" name="TAUPAR">     1</i>
  </separator>
  <separator name="External order field" >
   <i name="OFIELD_KAPPA">      0.00000000</i>
   <v name="OFIELD_K">      0.00000000      0.00000000      0.00000000</v>
   <i name="OFIELD_Q6_NEAR">      0.00000000</i>
   <i name="OFIELD_Q6_FAR">      0.00000000</i>
   <i name="OFIELD_A">      0.00000000</i>
  </separator>
 </parameters>
 <atominfo>
  <atoms>       2 </atoms>
  <types>       1 </types>
  <array name="atoms" >
   <dimension dim="1">ion</dimension>
   <field type="string">element</field>
   <field type="int">atomtype</field>
   <set>
    <rc><c>Si</c><c>   1</c></rc>
    <rc><c>Si</c><c>   1</c></rc>
   </set>
  </array>
  <array name="atomtypes" >
   <dimension dim="1">type</dimension>
   <field type="int">atomspertype</field>
   <field type="string">element</field>
   <field>mass</field>
   <field>valence</field>
   <field type="string">pseudopotential</field>
   <set>
    <rc><c>   2</c><c>Si</c><c>     28.08500000</c><c>      4.00000000</c><c>  PAW_PBE Si 05Jan2001                  </c></rc>
   </set>
  </array>
 </atominfo>
 <structure name="initialpos" >
  <crystal>
   <varray name="basis" >
    <v>      -2.69050000      -2.69050000       0.00000000 </v>
    <v>      -2.69050000       0.00000000      -2.69050000 </v>
    <v>       0.00000000      -2.69050000      -2.69050000 </v>
   </varray>
   <i name="volume">     38.95193034 </i>
   <varray name="rec_basis" >
    <v>      -0.18583906      -0.18583906       0.18583906 </v>
    <v>      -0.18583906       0.18583906      -0.18583906 </v>
    <v>       0.18583906      -0.18583906      -0.18583906 </v>
   </varray>
  </crystal>
  <varray name="positions" >
   <v>       0.00000000       0.00000000       0.00000000 </v>
   <v>       0.75000000       0.75000000       0.75000000 </v>
  </varray>
 </structure>
 <calculation>
  <scstep>
   <time name="dav">   15.54    2.76</time>
   <time name="total">   16.52    2.94</time>
   <energy>
    <i name="alphaZ">      3.45688961 </i>
    <i name="ewald">   -230.64485047 </i>
    <i name="hartreedc">    -10.59677716 </i>
    <i name="XCdc">    -18.41385785 </i>
    <i name="pawpsdc">    176.18363791 </i>
    <i name="pawaedc">   -140.99252705 </i>
    <i name="eentropy">      0.00000000 </i>
    <i name="bandstr">     21.00597514 </i>
    <i name="atom">    206.13270273 </i>
    <i name="e_fr_energy">      6.13119286 </i>
    <i name="e_wo_entrp">      6.13119286 </i>
    <i name="e_0_energy">      6.13119286 </i>
   </energy>
  </scstep>
  <scstep>
   <time name="dav">   19.03    3.44</time>
   <time name="total">   19.08    3.45</time>
   <energy>
    <i name="e_fr_energy">    -10.25655309 </i>
    <i name="e_wo_entrp">    -10.25655309 </i>
    <i name="e_0_energy">    -10.25655309 </i>
   </energy>
  </scstep>
  <scstep>
   <time name="dav">   14.81    2.52</time>
   <time name="total">   14.85    2.53</time>
   <energy>
    <i name="e_fr_energy">    -10.81988461 </i>
    <i name="e_wo_entrp">    -10.81988461 </i>
    <i name="e_0_energy">    -10.81988461 </i>
   </energy>
  </scstep>
  <scstep>
   <time name="dav">   10.30    1.86</time>
   <time name="total">   10.35    1.87</time>
   <energy>
    <i name="e_fr_energy">    -10.82394789 </i>
    <i name="e_wo_entrp">    -10.82394789 </i>
    <i name="e_0_energy">    -10.82394789 </i>
   </energy>
  </scstep>
  <scstep>
   <time name="dav">   12.00    2.37</time>
   <time name="total">   12.31    2.43</time>
   <energy>
    <i name="e_fr_energy">    -10.82398640 </i>
    <i name="e_wo_entrp">    -10.82398640 </i>
    <i name="e_0_energy">    -10.82398640 </i>
   </energy>
  </scstep>
  <scstep>
   <time name="diag">    1.79    0.36</time>
   <time name="diis">    2.59    0.52</time>
   <time name="orth">    0.32    0.06</time>
   <time name="total">    6.10    1.22</time>
   <energy>
    <i name="e_fr_energy">    -10.86135263 </i>
    <i name="e_wo_entrp">    -10.86135263 </i>
    <i name="e_0_energy">    -10.86135263 </i>
   </energy>
  </scstep>
  <scstep>
   <time name="diag">    2.42    0.48</time>
   <time name="diis">    2.79    0.56</time>
   <time name="orth">    0.21    0.04</time>
   <time name="total">    6.63    1.33</time>
   <energy>
    <i name="e_fr_energy">    -10.79343213 </i>
    <i name="e_wo_entrp">    -10.79343213 </i>
    <i name="e_0_energy">    -10.79343213 </i>
   </energy>
  </scstep>
  <scstep>
   <time name="diag">    2.03    0.41</time>
   <time name="diis">    2.59    0.52</time>
   <time name="orth">    0.42    0.08</time>
   <time name="total">    6.33    1.27</time>
   <energy>
    <i name="e_fr_energy">    -10.81155821 </i>
    <i name="e_wo_entrp">    -10.81155821 </i>
    <i name="e_0_energy">    -10.81155821 </i>
   </energy>
  </scstep>
  <scstep>
   <time name="diag">    2.01    0.40</time>
   <time name="diis">    2.60    0.52</time>
   <time name="orth">    0.12    0.02</time>
   <time name="total">    5.70    1.14</time>
   <energy>
    <i name="e_fr_energy">    -10.81319218 </i>
    <i name="e_wo_entrp">    -10.81319218 </i>
    <i name="e_0_energy">    -10.81319218 </i>
   </energy>
  </scstep>
  <scstep>
   <time name="diag">    1.85    0.37</time>
   <time name="diis">    4.36    0.83</time>
   <time name="orth">    0.42    0.08</time>
   <time name="total">    7.82    1.50</time>
   <energy>
    <i name="e_fr_energy">    -10.81357556 </i>
    <i name="e_wo_entrp">    -10.81357556 </i>
    <i name="e_0_energy">    -10.81357556 </i>
   </energy>
  </scstep>
  <scstep>
   <time name="diag">    2.03    0.35</time>
   <time name="diis">    3.00    0.50</time>
   <time name="orth">    0.23    0.04</time>
   <time name="total">    6.19    1.05</time>
   <energy>
    <i name="alphaZ">      3.45688961 </i>
    <i name="ewald">   -230.64485047 </i>
    <i name="hartreedc">    -14.61175907 </i>
    <i name="XCdc">    -17.83521093 </i>
    <i name="pawpsdc">    932.19793032 </i>
    <i name="pawaedc">   -897.26140284 </i>
    <i name="eentropy">      0.00000000 </i>
    <i name="bandstr">      7.75206344 </i>
    <i name="atom">    206.13270273 </i>
    <i name="e_fr_energy">    -10.81363721 </i>
    <i name="e_wo_entrp">    -10.81363721 </i>
    <i name="e_0_energy">    -10.81363721 </i>
   </energy>
  </scstep>
  <structure>
   <crystal>
    <varray name="basis" >
     <v>      -2.69050000      -2.69050000       0.00000000 </v>
     <v>      -2.69050000       0.00000000      -2.69050000 </v>
     <v>       0.00000000      -2.69050000      -2.69050000 </v>
    </varray>
    <i name="volume">     38.95193034 </i>
    <varray name="rec_basis" >
     <v>      -0.18583906      -0.18583906       0.18583906 </v>
     <v>      -0.18583906       0.18583906      -0.18583906 </v>
     <v>       0.18583906      -0.18583906      -0.18583906 </v>
    </varray>
   </crystal>
   <varray name="positions" >
    <v>       0.00000000       0.00000000       0.00000000 </v>
    <v>       0.75000000       0.75000000       0.75000000 </v>
   </varray>
  </structure>
  <varray name="forces" >
   <v>       0.00000000       0.00000000       0.00000000 </v>
   <v>      -0.00000000      -0.00000000      -0.00000000 </v>
  </varray>
  <varray name="stress" >
   <v>      48.12199949       0.00000000       0.00000000 </v>
   <v>      -0.00000000      48.12199949       0.00000000 </v>
   <v>      -0.00000000       0.00000000      48.12199949 </v>
  </varray>
  <energy>
   <i name="e_fr_energy">    -10.81363721 </i>
   <i name="e_wo_entrp">    -10.81363721 </i>
   <i name="e_0_energy">      0.00000000 </i>
  </energy>
  <time name="totalsc">  125.51   23.12</time>
 </calculation>
 <calculation>
  <scstep>
   <time name="dav">   11.59    2.10</time>
   <time name="total">   12.72    2.30</time>
   <energy>
    <i name="alphaZ">      3.17999806 </i>
    <i name="ewald">   -224.31460126 </i>
    <i name="hartreedc">    -14.22045186 </i>
    <i name="XCdc">    -18.24616513 </i>
    <i name="pawpsdc">    929.18527261 </i>
    <i name="pawaedc">   -894.24872034 </i>
    <i name="eentropy">      0.00000000 </i>
    <i name="bandstr">      1.66728058 </i>
    <i name="atom">    206.13270273 </i>
    <i name="e_fr_energy">    -10.86468460 </i>
    <i name="e_wo_entrp">    -10.86468460 </i>
    <i name="e_0_energy">    -10.86468460 </i>
   </energy>
  </scstep>
  <scstep>
   <time name="diag">    2.62    0.52</time>
   <time name="diis">    2.95    0.59</time>
   <time name="orth">    0.38    0.08</time>
   <time name="total">    7.03    1.41</time>
   <energy>
    <i name="e_fr_energy">    -10.84075957 </i>
    <i name="e_wo_entrp">    -10.84075957 </i>
    <i name="e_0_energy">    -10.84075957 </i>
   </energy>
  </scstep>
  <scstep>
   <time name="diag">    1.64    0.33</time>
   <time name="diis">    2.82    0.56</time>
   <time name="orth">    0.36    0.07</time>
   <time name="total">    6.21    1.25</time>
   <energy>
    <i name="e_fr_energy">    -10.82764989 </i>
    <i name="e_wo_entrp">    -10.82764989 </i>
    <i name="e_0_energy">    -10.82764989 </i>
   </energy>
  </scstep>
  <scstep>
   <time name="diag">    2.47    0.49</time>
   <time name="diis">    2.41    0.48</time>
   <time name="orth">    0.19    0.04</time>
   <time name="total">    6.17    1.23</time>
   <energy>
    <i name="e_fr_energy">    -10.82766313 </i>
    <i name="e_wo_entrp">    -10.82766313 </i>
    <i name="e_0_energy">    -10.82766313 </i>
   </energy>
  </scstep>
  <scstep>
   <time name="diag">    1.90    0.38</time>
   <time name="diis">    1.75    0.35</time>
   <time name="orth">    0.24    0.05</time>
   <time name="total">    4.84    0.97</time>
   <energy>
    <i name="alphaZ">      3.17999806 </i>
    <i name="ewald">   -224.31460126 </i>
    <i name="hartreedc">    -15.61124339 </i>
    <i name="XCdc">    -18.21503015 </i>
    <i name="pawpsdc">    769.88098456 </i>
    <i name="pawaedc">   -734.87188059 </i>
    <i name="eentropy">      0.00000000 </i>
    <i name="bandstr">      2.99142786 </i>
    <i name="atom">    206.13270273 </i>
    <i name="e_fr_energy">    -10.82764217 </i>
    <i name="e_wo_entrp">    -10.82764217 </i>
    <i name="e_0_energy">    -10.82764217 </i>
   </energy>
  </scstep>
  <structure>
   <crystal>
    <varray name="basis" >
     <v>      -2.76642700      -2.76642700      -0.00000000 </v>
     <v>      -2.76642700      -0.00000000      -2.76642700 </v>
     <v>       0.00000000      -2.76642700      -2.76642700 </v>
    </varray>
    <i name="volume">     42.34358661 </i>
    <varray name="rec_basis" >
     <v>      -0.18073855      -0.18073855       0.18073855 </v>
     <v>      -0.18073855       0.18073855      -0.18073855 </v>
     <v>       0.18073855      -0.18073855      -0.18073855 </v>
    </varray>
   </crystal>
   <varray name="positions" >
    <v>       0.00000000      -0.00000000      -0.00000000 </v>
    <v>       0.75000000       0.75000000       0.75000000 </v>
   </varray>
  </structure>
  <varray name="forces" >
   <v>      -0.00000000      -0.00000000      -0.00000000 </v>
   <v>       0.00000000       0.00000000       0.00000000 </v>
  </varray>
  <varray name="stress" >
   <v>     -28.81101578       0.00000000       0.00000000 </v>
   <v>       0.00000000     -28.81101578       0.00000000 </v>
   <v>      -0.00000000      -0.00000000     -28.81101578 </v>
  </varray>
  <energy>
   <i name="e_fr_energy">    -10.82764217 </i>
   <i name="e_wo_entrp">    -10.82764217 </i>
   <i name="e_0_energy">      0.00000000 </i>
  </energy>
  <time name="totalsc">   46.28    8.91</time>
 </calculation>
 <calculation>
  <scstep>
   <time name="dav">   12.30    2.21</time>
   <time name="total">   13.07    2.34</time>
   <energy>
    <i name="alphaZ">      3.29356746 </i>
    <i name="ewald">   -226.95379381 </i>
    <i name="hartreedc">    -15.80020686 </i>
    <i name="XCdc">    -18.04613911 </i>
    <i name="pawpsdc">    771.20624353 </i>
    <i name="pawaedc">   -736.19591028 </i>
    <i name="eentropy">      0.00000000 </i>
    <i name="bandstr">      5.51575344 </i>
    <i name="atom">    206.13270273 </i>
    <i name="e_fr_energy">    -10.84778289 </i>
    <i name="e_wo_entrp">    -10.84778289 </i>
    <i name="e_0_energy">    -10.84778289 </i>
   </energy>
  </scstep>
  <scstep>
   <time name="diag">    2.95    0.51</time>
   <time name="diis">    3.21    0.57</time>
   <time name="orth">    0.19    0.03</time>
   <time name="total">    7.28    1.28</time>
   <energy>
    <i name="e_fr_energy">    -10.84353093 </i>
    <i name="e_wo_entrp">    -10.84353093 </i>
    <i name="e_0_energy">    -10.84353093 </i>
   </energy>
  </scstep>
  <scstep>
   <time name="diag">    1.83    0.31</time>
   <time name="diis">    2.91    0.49</time>
   <time name="orth">    0.16    0.03</time>
   <time name="total">    6.16    1.04</time>
   <energy>
    <i name="e_fr_energy">    -10.84120134 </i>
    <i name="e_wo_entrp">    -10.84120134 </i>
    <i name="e_0_energy">    -10.84120134 </i>
   </energy>
  </scstep>
  <scstep>
   <time name="diag">    2.53    0.45</time>
   <time name="diis">    1.91    0.37</time>
   <time name="orth">    0.48    0.08</time>
   <time name="total">    5.97    1.09</time>
   <energy>
    <i name="e_fr_energy">    -10.84120461 </i>
    <i name="e_wo_entrp">    -10.84120461 </i>
    <i name="e_0_energy">    -10.84120461 </i>
   </energy>
  </scstep>
  <scstep>
   <time name="diag">    2.05    0.37</time>
   <time name="diis">    1.94    0.33</time>
   <time name="orth">    0.17    0.03</time>
   <time name="total">    4.89    0.86</time>
   <energy>
    <i name="alphaZ">      3.29356746 </i>
    <i name="ewald">   -226.95379381 </i>
    <i name="hartreedc">    -15.20514080 </i>
    <i name="XCdc">    -18.05597976 </i>
    <i name="pawpsdc">    830.35417617 </i>
    <i name="pawaedc">   -795.37421631 </i>
    <i name="eentropy">      0.00000000 </i>
    <i name="bandstr">      4.96747514 </i>
    <i name="atom">    206.13270273 </i>
    <i name="e_fr_energy">    -10.84120917 </i>
    <i name="e_wo_entrp">    -10.84120917 </i>
    <i name="e_0_energy">    -10.84120917 </i>
   </energy>
  </scstep>
  <structure>
   <crystal>
    <varray name="basis" >
     <v>      -2.73425687      -2.73425687      -0.00000000 </v>
     <v>      -2.73425687      -0.00000000      -2.73425687 </v>
     <v>       0.00000000      -2.73425687      -2.73425687 </v>
    </varray>
    <i name="volume">     40.88348719 </i>
    <varray name="rec_basis" >
     <v>      -0.18286504      -0.18286504       0.18286504 </v>
     <v>      -0.18286504       0.18286504      -0.18286504 </v>
     <v>       0.18286504      -0.18286504      -0.18286504 </v>
    </varray>
   </crystal>
   <varray name="positions" >
    <v>       0.00000000      -0.00000000      -0.00000000 </v>
    <v>       0.75000000       0.75000000       0.75000000 </v>
   </varray>
  </structure>
  <varray name="forces" >
   <v>      -0.00000000      -0.00000000      -0.00000000 </v>
   <v>       0.00000000       0.00000000       0.00000000 </v>
  </varray>
  <varray name="stress" >
   <v>      -0.41273362      -0.00000000      -0.00000000 </v>
   <v>       0.00000000      -0.41273362      -0.00000000 </v>
   <v>      -0.00000000      -0.00000000      -0.41273362 </v>
  </varray>
  <energy>
   <i name="e_fr_energy">    -10.84120917 </i>
   <i name="e_wo_entrp">    -10.84120917 </i>
   <i name="e_0_energy">      0.00000000 </i>
  </energy>
  <time name="totalsc">   45.98    8.26</time>
  <eigenvalues>
   <array>
    <dimension dim="1">band</dimension>
    <dimension dim="2">kpoint</dimension>
    <dimension dim="3">spin</dimension>
    <field>eigene</field>
    <field>occ</field>
    <set>
     <set comment="spin 1">
      <set comment="kpoint 1">
       <r>   -6.1947    1.0000 </r>
       <r>    5.6219    1.0000 </r>
       <r>    5.6219    1.0000 </r>
       <r>    5.6219    1.0000 </r>
       <r>    8.1769    0.0000 </r>
       <r>    8.1769    0.0000 </r>
       <r>    8.1769    0.0000 </r>
       <r>    8.7575    0.0000 </r>
       <r>   13.3288    0.0000 </r>
       <r>   13.3288    0.0000 </r>
       <r>   13.4998    0.0000 </r>
       <r>   16.8019    0.0000 </r>
      </set>
      <set comment="kpoint 2">
       <r>   -5.9333    1.0000 </r>
       <r>    3.7015    1.0000 </r>
       <r>    5.2723    1.0000 </r>
       <r>    5.2723    1.0000 </r>
       <r>    7.9995    0.0000 </r>
       <r>    8.6884    0.0000 </r>
       <r>    8.6884    0.0000 </r>
       <r>   10.4731    0.0000 </r>
       <r>   12.7798    0.0000 </r>
       <r>   12.7798    0.0000 </r>
       <r>   14.4459    0.0000 </r>
       <r>   16.1891    0.0000 </r>
      </set>
      <set comment="kpoint 3">
       <r>   -5.1809    1.0000 </r>
       <r>    1.1184    1.0000 </r>
       <r>    4.7645    1.0000 </r>
       <r>    4.7645    1.0000 </r>
       <r>    7.4562    0.0000 </r>
       <r>    9.1451    0.0000 </r>
       <r>    9.1451    0.0000 </r>
       <r>   12.9349    0.0000 </r>
       <r>   13.0595    0.0000 </r>
       <r>   13.0595    0.0000 </r>
       <r>   14.4484    0.0000 </r>
       <r>   18.0859    0.0000 </r>
      </set>
      <set comment="kpoint 4">
       <r>   -4.1632    1.0000 </r>
       <r>   -0.8764    1.0000 </r>
       <r>    4.4792    1.0000 </r>
       <r>    4.4792    1.0000 </r>
       <r>    7.1304    0.0000 </r>
       <r>    9.0076    0.0000 </r>
       <r>    9.0076    0.0000 </r>
       <r>   13.3807    0.0000 </r>
       <r>   15.0437    0.0000 </r>
       <r>   15.0437    0.0000 </r>
       <r>   16.0080    0.0000 </r>
       <r>   18.0644    0.0000 </r>
      </set>
      <set comment="kpoint 5">
       <r>   -5.8448    1.0000 </r>
       <r>    3.9737    1.0000 </r>
       <r>    4.6717    1.0000 </r>
       <r>    4.6717    1.0000 </r>
       <r>    7.5079    0.0000 </r>
       <r>    9.5551    0.0000 </r>
       <r>    9.5551    0.0000 </r>
       <r>    9.9124    0.0000 </r>
       <r>   12.0334    0.0000 </r>
       <r>   13.7183    0.0000 </r>
       <r>   14.8574    0.0000 </r>
       <r>   17.4092    0.0000 </r>
      </set>
      <set comment="kpoint 6">
       <r>   -5.2487    1.0000 </r>
       <r>    1.8885    1.0000 </r>
       <r>    4.0896    1.0000 </r>
       <r>    4.1382    1.0000 </r>
       <r>    7.6962    0.0000 </r>
       <r>    9.4486    0.0000 </r>
       <r>   10.1818    0.0000 </r>
       <r>   10.3333    0.0000 </r>
       <r>   13.6342    0.0000 </r>
       <r>   14.0943    0.0000 </r>
       <r>   15.7627    0.0000 </r>
       <r>   17.6077    0.0000 </r>
      </set>
      <set comment="kpoint 7">
       <r>   -4.2598    1.0000 </r>
       <r>   -0.2565    1.0000 </r>
       <r>    3.4108    1.0000 </r>
       <r>    3.9509    1.0000 </r>
       <r>    7.7529    0.0000 </r>
       <r>    9.3989    0.0000 </r>
       <r>   10.1343    0.0000 </r>
       <r>   11.3677    0.0000 </r>
       <r>   15.0352    0.0000 </r>
       <r>   15.7947    0.0000 </r>
       <r>   16.3896    0.0000 </r>
       <r>   17.7500    0.0000 </r>
      </set>
      <set comment="kpoint 8">
       <r>   -3.7155    1.0000 </r>
       <r>   -1.1014    1.0000 </r>
       <r>    3.0051    1.0000 </r>
       <r>    4.1436    1.0000 </r>
       <r>    7.8398    0.0000 </r>
       <r>    9.3226    0.0000 </r>
       <r>    9.7481    0.0000 </r>
       <r>   13.7168    0.0000 </r>
       <r>   14.2417    0.0000 </r>
       <r>   14.6142    0.0000 </r>
       <r>   16.5054    0.0000 </r>
       <r>   18.6559    0.0000 </r>
      </set>
      <set comment="kpoint 9">
       <r>   -4.6207    1.0000 </r>
       <r>    0.4108    1.0000 </r>
       <r>    3.0142    1.0000 </r>
       <r>    4.6473    1.0000 </r>
       <r>    8.2230    0.0000 </r>
       <r>    9.5052    0.0000 </r>
       <r>    9.5291    0.0000 </r>
       <r>   12.1909    0.0000 </r>
       <r>   12.3643    0.0000 </r>
       <r>   15.3909    0.0000 </r>
       <r>   16.6626    0.0000 </r>
       <r>   17.7293    0.0000 </r>
      </set>
      <set comment="kpoint 10">
       <r>   -5.5047    1.0000 </r>
       <r>    2.4985    1.0000 </r>
       <r>    3.6997    1.0000 </r>
       <r>    5.2292    1.0000 </r>
       <r>    8.6122    0.0000 </r>
       <r>    8.8980    0.0000 </r>
       <r>    9.1459    0.0000 </r>
       <r>   11.1623    0.0000 </r>
       <r>   11.8422    0.0000 </r>
       <r>   14.0548    0.0000 </r>
       <r>   15.6185    0.0000 </r>
       <r>   16.8452    0.0000 </r>
      </set>
      <set comment="kpoint 11">
       <r>   -4.8120    1.0000 </r>
       <r>    1.4702    1.0000 </r>
       <r>    3.5272    1.0000 </r>
       <r>    3.5272    1.0000 </r>
       <r>    6.5769    0.0000 </r>
       <r>    8.2480    0.0000 </r>
       <r>   11.9381    0.0000 </r>
       <r>   11.9381    0.0000 </r>
       <r>   14.2298    0.0000 </r>
       <r>   14.8841    0.0000 </r>
       <r>   17.6578    0.0000 </r>
       <r>   18.8946    0.0000 </r>
      </set>
      <set comment="kpoint 12">
       <r>   -3.9259    1.0000 </r>
       <r>   -0.0082    1.0000 </r>
       <r>    2.5690    1.0000 </r>
       <r>    3.2712    1.0000 </r>
       <r>    6.8599    0.0000 </r>
       <r>    8.3299    0.0000 </r>
       <r>   12.1464    0.0000 </r>
       <r>   12.3389    0.0000 </r>
       <r>   16.4395    0.0000 </r>
       <r>   16.6913    0.0000 </r>
       <r>   17.1514    0.0000 </r>
       <r>   17.7301    0.0000 </r>
      </set>
      <set comment="kpoint 13">
       <r>   -3.0296    1.0000 </r>
       <r>   -1.1611    1.0000 </r>
       <r>    1.6345    1.0000 </r>
       <r>    3.4362    1.0000 </r>
       <r>    7.0971    0.0000 </r>
       <r>   10.5431    0.0000 </r>
       <r>   11.8510    0.0000 </r>
       <r>   11.8804    0.0000 </r>
       <r>   14.5581    0.0000 </r>
       <r>   14.6256    0.0000 </r>
       <r>   18.9096    0.0000 </r>
       <r>   19.2548    0.0000 </r>
      </set>
      <set comment="kpoint 14">
       <r>   -3.6661    1.0000 </r>
       <r>   -0.4241    1.0000 </r>
       <r>    1.5638    1.0000 </r>
       <r>    3.9748    1.0000 </r>
       <r>    7.6878    0.0000 </r>
       <r>   11.0286    0.0000 </r>
       <r>   11.3659    0.0000 </r>
       <r>   12.1290    0.0000 </r>
       <r>   12.4994    0.0000 </r>
       <r>   13.6792    0.0000 </r>
       <r>   18.8427    0.0000 </r>
       <r>   19.4576    0.0000 </r>
      </set>
      <set comment="kpoint 15">
       <r>   -3.1542    1.0000 </r>
       <r>   -0.9921    1.0000 </r>
       <r>    2.9057    1.0000 </r>
       <r>    2.9057    1.0000 </r>
       <r>    6.2317    0.0000 </r>
       <r>    6.7485    0.0000 </r>
       <r>   14.5509    0.0000 </r>
       <r>   14.5509    0.0000 </r>
       <r>   16.8161    0.0000 </r>
       <r>   17.1758    0.0000 </r>
       <r>   17.5579    0.0000 </r>
       <r>   17.5579    0.0000 </r>
      </set>
      <set comment="kpoint 16">
       <r>   -2.2238    1.0000 </r>
       <r>   -1.9348    1.0000 </r>
       <r>    2.0357    1.0000 </r>
       <r>    2.9660    1.0000 </r>
       <r>    6.5321    0.0000 </r>
       <r>    7.7694    0.0000 </r>
       <r>   14.3305    0.0000 </r>
       <r>   14.7399    0.0000 </r>
       <r>   14.9803    0.0000 </r>
       <r>   15.2990    0.0000 </r>
       <r>   19.2160    0.0000 </r>
       <r>   19.2555    0.0000 </r>
      </set>
      <set comment="kpoint 17">
       <r>   -4.5096    1.0000 </r>
       <r>    0.7518    1.0000 </r>
       <r>    2.5728    1.0000 </r>
       <r>    3.8697    1.0000 </r>
       <r>    8.1991    0.0000 </r>
       <r>    9.4350    0.0000 </r>
       <r>    9.7285    0.0000 </r>
       <r>   11.6980    0.0000 </r>
       <r>   13.7944    0.0000 </r>
       <r>   16.4795    0.0000 </r>
       <r>   16.8678    0.0000 </r>
       <r>   18.0797    0.0000 </r>
      </set>
      <set comment="kpoint 18">
       <r>   -3.4893    1.0000 </r>
       <r>   -0.7503    1.0000 </r>
       <r>    2.0051    1.0000 </r>
       <r>    3.3463    1.0000 </r>
       <r>    8.6805    0.0000 </r>
       <r>    9.0849    0.0000 </r>
       <r>   11.0458    0.0000 </r>
       <r>   12.1494    0.0000 </r>
       <r>   13.8711    0.0000 </r>
       <r>   15.5107    0.0000 </r>
       <r>   17.7181    0.0000 </r>
       <r>   18.9058    0.0000 </r>
      </set>
      <set comment="kpoint 19">
       <r>   -2.9550    1.0000 </r>
       <r>   -1.0789    1.0000 </r>
       <r>    2.0999    1.0000 </r>
       <r>    2.5048    1.0000 </r>
       <r>    7.8387    0.0000 </r>
       <r>    8.2089    0.0000 </r>
       <r>   11.7082    0.0000 </r>
       <r>   14.1797    0.0000 </r>
       <r>   14.6796    0.0000 </r>
       <r>   16.5504    0.0000 </r>
       <r>   17.9472    0.0000 </r>
       <r>   19.5134    0.0000 </r>
      </set>
      <set comment="kpoint 20">
       <r>   -2.5298    1.0000 </r>
       <r>   -1.4678    1.0000 </r>
       <r>    1.4772    1.0000 </r>
       <r>    2.5942    1.0000 </r>
       <r>    8.3600    0.0000 </r>
       <r>   10.4506    0.0000 </r>
       <r>   11.1968    0.0000 </r>
       <r>   11.3534    0.0000 </r>
       <r>   14.5919    0.0000 </r>
       <r>   15.7553    0.0000 </r>
       <r>   18.6586    0.0000 </r>
       <r>   19.9401    0.0000 </r>
      </set>
     </set>
     <set comment="spin 2">
      <set comment="kpoint 1">
       <r>   -6.1948    1.0000 </r>
       <r>    5.6218    1.0000 </r>
       <r>    5.6218    1.0000 </r>
       <r>    5.6218    1.0000 </r>
       <r>    8.1769    0.0000 </r>
       <r>    8.1769    0.0000 </r>
       <r>    8.1769    0.0000 </r>
       <r>    8.7575    0.0000 </r>
       <r>   13.3287    0.0000 </r>
       <r>   13.3287    0.0000 </r>
       <r>   13.4998    0.0000 </r>
       <r>   16.8019    0.0000 </r>
      </set>
      <set comment="kpoint 2">
       <r>   -5.9334    1.0000 </r>
       <r>    3.7014    1.0000 </r>
       <r>    5.2722    1.0000 </r>
       <r>    5.2722    1.0000 </r>
       <r>    7.9994    0.0000 </r>
       <r>    8.6884    0.0000 </r>
       <r>    8.6884    0.0000 </r>
       <r>   10.4730    0.0000 </r>
       <r>   12.7798    0.0000 </r>
       <r>   12.7798    0.0000 </r>
       <r>   14.4459    0.0000 </r>
       <r>   16.1891    0.0000 </r>
      </set>
      <set comment="kpoint 3">
       <r>   -5.1809    1.0000 </r>
       <r>    1.1183    1.0000 </r>
       <r>    4.7644    1.0000 </r>
       <r>    4.7644    1.0000 </r>
       <r>    7.4561    0.0000 </r>
       <r>    9.1450    0.0000 </r>
       <r>    9.1450    0.0000 </r>
       <r>   12.9349    0.0000 </r>
       <r>   13.0595    0.0000 </r>
       <r>   13.0595    0.0000 </r>
       <r>   14.4484    0.0000 </r>
       <r>   18.0859    0.0000 </r>
      </set>
      <set comment="kpoint 4">
       <r>   -4.1633    1.0000 </r>
       <r>   -0.8765    1.0000 </r>
       <r>    4.4791    1.0000 </r>
       <r>    4.4791    1.0000 </r>
       <r>    7.1304    0.0000 </r>
       <r>    9.0075    0.0000 </r>
       <r>    9.0075    0.0000 </r>
       <r>   13.3807    0.0000 </r>
       <r>   15.0437    0.0000 </r>
       <r>   15.0437    0.0000 </r>
       <r>   16.0079    0.0000 </r>
       <r>   18.0644    0.0000 </r>
      </set>
      <set comment="kpoint 5">
       <r>   -5.8449    1.0000 </r>
       <r>    3.9736    1.0000 </r>
       <r>    4.6716    1.0000 </r>
       <r>    4.6716    1.0000 </r>
       <r>    7.5079    0.0000 </r>
       <r>    9.5550    0.0000 </r>
       <r>    9.5550    0.0000 </r>
       <r>    9.9123    0.0000 </r>
       <r>   12.0333    0.0000 </r>
       <r>   13.7183    0.0000 </r>
       <r>   14.8574    0.0000 </r>
       <r>   17.4091    0.0000 </r>
      </set>
      <set comment="kpoint 6">
       <r>   -5.2487    1.0000 </r>
       <r>    1.8885    1.0000 </r>
       <r>    4.0896    1.0000 </r>
       <r>    4.1381    1.0000 </r>
       <r>    7.6961    0.0000 </r>
       <r>    9.4485    0.0000 </r>
       <r>   10.1818    0.0000 </r>
       <r>   10.3333    0.0000 </r>
       <r>   13.6342    0.0000 </r>
       <r>   14.0943    0.0000 </r>
       <r>   15.7626    0.0000 </r>
       <r>   17.6077    0.0000 </r>
      </set>
      <set comment="kpoint 7">
       <r>   -4.2599    1.0000 </r>
       <r>   -0.2565    1.0000 </r>
       <r>    3.4107    1.0000 </r>
       <r>    3.9508    1.0000 </r>
       <r>    7.7529    0.0000 </r>
       <r>    9.3989    0.0000 </r>
       <r>   10.1342    0.0000 </r>
       <r>   11.3676    0.0000 </r>
       <r>   15.0352    0.0000 </r>
       <r>   15.7947    0.0000 </r>
       <r>   16.3896    0.0000 </r>
       <r>   17.7500    0.0000 </r>
      </set>
      <set comment="kpoint 8">
       <r>   -3.7156    1.0000 </r>
       <r>   -1.1015    1.0000 </r>
       <r>    3.0051    1.0000 </r>
       <r>    4.1435    1.0000 </r>
       <r>    7.8398    0.0000 </r>
       <r>    9.3226    0.0000 </r>
       <r>    9.7480    0.0000 </r>
       <r>   13.7168    0.0000 </r>
       <r>   14.2416    0.0000 </r>
       <r>   14.6142    0.0000 </r>
       <r>   16.5054    0.0000 </r>
       <r>   18.6560    0.0000 </r>
      </set>
      <set comment="kpoint 9">
       <r>   -4.6208    1.0000 </r>
       <r>    0.4107    1.0000 </r>
       <r>    3.0142    1.0000 </r>
       <r>    4.6472    1.0000 </r>
       <r>    8.2229    0.0000 </r>
       <r>    9.5052    0.0000 </r>
       <r>    9.5291    0.0000 </r>
       <r>   12.1909    0.0000 </r>
       <r>   12.3643    0.0000 </r>
       <r>   15.3909    0.0000 </r>
       <r>   16.6625    0.0000 </r>
       <r>   17.7293    0.0000 </r>
      </set>
      <set comment="kpoint 10">
       <r>   -5.5048    1.0000 </r>
       <r>    2.4984    1.0000 </r>
       <r>    3.6996    1.0000 </r>
       <r>    5.2291    1.0000 </r>
       <r>    8.6122    0.0000 </r>
       <r>    8.8980    0.0000 </r>
       <r>    9.1458    0.0000 </r>
       <r>   11.1622    0.0000 </r>
       <r>   11.8422    0.0000 </r>
       <r>   14.0548    0.0000 </r>
       <r>   15.6185    0.0000 </r>
       <r>   16.8452    0.0000 </r>
      </set>
      <set comment="kpoint 11">
       <r>   -4.8121    1.0000 </r>
       <r>    1.4701    1.0000 </r>
       <r>    3.5271    1.0000 </r>
       <r>    3.5271    1.0000 </r>
       <r>    6.5768    0.0000 </r>
       <r>    8.2479    0.0000 </r>
       <r>   11.9380    0.0000 </r>
       <r>   11.9380    0.0000 </r>
       <r>   14.2297    0.0000 </r>
       <r>   14.8841    0.0000 </r>
       <r>   17.6578    0.0000 </r>
       <r>   18.8946    0.0000 </r>
      </set>
      <set comment="kpoint 12">
       <r>   -3.9260    1.0000 </r>
       <r>   -0.0083    1.0000 </r>
       <r>    2.5689    1.0000 </r>
       <r>    3.2711    1.0000 </r>
       <r>    6.8599    0.0000 </r>
       <r>    8.3298    0.0000 </r>
       <r>   12.1463    0.0000 </r>
       <r>   12.3389    0.0000 </r>
       <r>   16.4395    0.0000 </r>
       <r>   16.6913    0.0000 </r>
       <r>   17.1514    0.0000 </r>
       <r>   17.7301    0.0000 </r>
      </set>
      <set comment="kpoint 13">
       <r>   -3.0297    1.0000 </r>
       <r>   -1.1612    1.0000 </r>
       <r>    1.6344    1.0000 </r>
       <r>    3.4361    1.0000 </r>
       <r>    7.0971    0.0000 </r>
       <r>   10.5430    0.0000 </r>
       <r>   11.8510    0.0000 </r>
       <r>   11.8803    0.0000 </r>
       <r>   14.5581    0.0000 </r>
       <r>   14.6256    0.0000 </r>
       <r>   18.9095    0.0000 </r>
       <r>   19.2523    0.0000 </r>
      </set>
      <set comment="kpoint 14">
       <r>   -3.6662    1.0000 </r>
       <r>   -0.4241    1.0000 </r>
       <r>    1.5638    1.0000 </r>
       <r>    3.9747    1.0000 </r>
       <r>    7.6878    0.0000 </r>
       <r>   11.0285    0.0000 </r>
       <r>   11.3658    0.0000 </r>
       <r>   12.1290    0.0000 </r>
       <r>   12.4993    0.0000 </r>
       <r>   13.6792    0.0000 </r>
       <r>   18.8426    0.0000 </r>
       <r>   19.4576    0.0000 </r>
      </set>
      <set comment="kpoint 15">
       <r>   -3.1542    1.0000 </r>
       <r>   -0.9922    1.0000 </r>
       <r>    2.9057    1.0000 </r>
       <r>    2.9057    1.0000 </r>
       <r>    6.2316    0.0000 </r>
       <r>    6.7484    0.0000 </r>
       <r>   14.5508    0.0000 </r>
       <r>   14.5508    0.0000 </r>
       <r>   16.8161    0.0000 </r>
       <r>   17.1757    0.0000 </r>
       <r>   17.5579    0.0000 </r>
       <r>   17.5579    0.0000 </r>
      </set>
      <set comment="kpoint 16">
       <r>   -2.2239    1.0000 </r>
       <r>   -1.9349    1.0000 </r>
       <r>    2.0356    1.0000 </r>
       <r>    2.9659    1.0000 </r>
       <r>    6.5320    0.0000 </r>
       <r>    7.7693    0.0000 </r>
       <r>   14.3305    0.0000 </r>
       <r>   14.7398    0.0000 </r>
       <r>   14.9802    0.0000 </r>
       <r>   15.2990    0.0000 </r>
       <r>   19.2213    0.0000 </r>
       <r>   19.2548    0.0000 </r>
      </set>
      <set comment="kpoint 17">
       <r>   -4.5097    1.0000 </r>
       <r>    0.7517    1.0000 </r>
       <r>    2.5727    1.0000 </r>
       <r>    3.8696    1.0000 </r>
       <r>    8.1990    0.0000 </r>
       <r>    9.4350    0.0000 </r>
       <r>    9.7285    0.0000 </r>
       <r>   11.6980    0.0000 </r>
       <r>   13.7943    0.0000 </r>
       <r>   16.4794    0.0000 </r>
       <r>   16.8678    0.0000 </r>
       <r>   18.0797    0.0000 </r>
      </set>
      <set comment="kpoint 18">
       <r>   -3.4893    1.0000 </r>
       <r>   -0.7503    1.0000 </r>
       <r>    2.0050    1.0000 </r>
       <r>    3.3462    1.0000 </r>
       <r>    8.6805    0.0000 </r>
       <r>    9.0848    0.0000 </r>
       <r>   11.0457    0.0000 </r>
       <r>   12.1493    0.0000 </r>
       <r>   13.8711    0.0000 </r>
       <r>   15.5106    0.0000 </r>
       <r>   17.7181    0.0000 </r>
       <r>   18.9058    0.0000 </r>
      </set>
      <set comment="kpoint 19">
       <r>   -2.9551    1.0000 </r>
       <r>   -1.0790    1.0000 </r>
       <r>    2.0998    1.0000 </r>
       <r>    2.5047    1.0000 </r>
       <r>    7.8387    0.0000 </r>
       <r>    8.2089    0.0000 </r>
       <r>   11.7081    0.0000 </r>
       <r>   14.1796    0.0000 </r>
       <r>   14.6796    0.0000 </r>
       <r>   16.5504    0.0000 </r>
       <r>   17.9472    0.0000 </r>
       <r>   19.5134    0.0000 </r>
      </set>
      <set comment="kpoint 20">
       <r>   -2.5299    1.0000 </r>
       <r>   -1.4679    1.0000 </r>
       <r>    1.4771    1.0000 </r>
       <r>    2.5941    1.0000 </r>
       <r>    8.3599    0.0000 </r>
       <r>   10.4506    0.0000 </r>
       <r>   11.1968    0.0000 </r>
       <r>   11.3534    0.0000 </r>
       <r>   14.5918    0.0000 </r>
       <r>   15.7553    0.0000 </r>
       <r>   18.6585    0.0000 </r>
       <r>   19.9401    0.0000 </r>
      </set>
     </set>
    </set>
   </array>
  </eigenvalues>
  <separator name="orbital magnetization" >
   <v name="MAGDIPOLOUT">      0.00000000      0.00000000      0.00000000</v>
  </separator>
  <dos>
   <i name="efermi">      5.62989450 </i>
   <total>
    <array>
     <dimension dim="1">gridpoints</dimension>
     <dimension dim="2">spin</dimension>
     <field>energy</field>
     <field>total</field>
     <field>integrated</field>
     <set>
      <set comment="spin 1">
       <r>    -7.5016     0.0000     0.0000 </r>
       <r>    -7.4057     0.0000     0.0000 </r>
       <r>    -7.3099     0.0000     0.0000 </r>
       <r>    -7.2141     0.0000     0.0000 </r>
       <r>    -7.1182     0.0000     0.0000 </r>
       <r>    -7.0224     0.0000     0.0000 </r>
       <r>    -6.9266     0.0000     0.0000 </r>
       <r>    -6.8308     0.0000     0.0000 </r>
       <r>    -6.7349     0.0000     0.0000 </r>
       <r>    -6.6391     0.0000     0.0000 </r>
       <r>    -6.5433     0.0000     0.0000 </r>
       <r>    -6.4474     0.0000     0.0000 </r>
       <r>    -6.3516     0.0000     0.0000 </r>
       <r>    -6.2558     0.0000     0.0000 </r>
       <r>    -6.1600     0.0018     0.0000 </r>
       <r>    -6.0641     0.0250     0.0011 </r>
       <r>    -5.9683     0.0750     0.0057 </r>
       <r>    -5.8725     0.0866     0.0143 </r>
       <r>    -5.7766     0.0990     0.0231 </r>
       <r>    -5.6808     0.1148     0.0333 </r>
       <r>    -5.5850     0.1317     0.0451 </r>
       <r>    -5.4892     0.1495     0.0586 </r>
       <r>    -5.3933     0.1639     0.0736 </r>
       <r>    -5.2975     0.1723     0.0898 </r>
       <r>    -5.2017     0.1783     0.1065 </r>
       <r>    -5.1059     0.1900     0.1242 </r>
       <r>    -5.0100     0.2022     0.1430 </r>
       <r>    -4.9142     0.2149     0.1629 </r>
       <r>    -4.8184     0.2280     0.1842 </r>
       <r>    -4.7225     0.2415     0.2067 </r>
       <r>    -4.6267     0.2556     0.2305 </r>
       <r>    -4.5309     0.2676     0.2555 </r>
       <r>    -4.4351     0.2836     0.2819 </r>
       <r>    -4.3392     0.3017     0.3099 </r>
       <r>    -4.2434     0.3219     0.3398 </r>
       <r>    -4.1476     0.3599     0.3721 </r>
       <r>    -4.0517     0.4157     0.4095 </r>
       <r>    -3.9559     0.4457     0.4509 </r>
       <r>    -3.8601     0.4500     0.4941 </r>
       <r>    -3.7643     0.4281     0.5364 </r>
       <r>    -3.6684     0.4366     0.5766 </r>
       <r>    -3.5726     0.4615     0.6202 </r>
       <r>    -3.4768     0.4216     0.6628 </r>
       <r>    -3.3809     0.3918     0.7018 </r>
       <r>    -3.2851     0.3677     0.7381 </r>
       <r>    -3.1893     0.3492     0.7724 </r>
       <r>    -3.0935     0.3386     0.8053 </r>
       <r>    -2.9976     0.3315     0.8374 </r>
       <r>    -2.9018     0.3354     0.8690 </r>
       <r>    -2.8060     0.3369     0.9014 </r>
       <r>    -2.7101     0.3144     0.9328 </r>
       <r>    -2.6143     0.2679     0.9609 </r>
       <r>    -2.5185     0.1179     0.9854 </r>
       <r>    -2.4227     0.0672     0.9942 </r>
       <r>    -2.3268     0.0284     0.9987 </r>
       <r>    -2.2310     0.0015     1.0000 </r>
       <r>    -2.1352     0.0000     1.0000 </r>
       <r>    -2.0394     0.0000     1.0000 </r>
       <r>    -1.9435     0.0000     1.0000 </r>
       <r>    -1.8477     0.0179     1.0007 </r>
       <r>    -1.7519     0.0438     1.0036 </r>
       <r>    -1.6560     0.0764     1.0093 </r>
       <r>    -1.5602     0.1155     1.0185 </r>
       <r>    -1.4644     0.2526     1.0349 </r>
       <r>    -1.3686     0.3285     1.0630 </r>
       <r>    -1.2727     0.3820     1.0972 </r>
       <r>    -1.1769     0.4134     1.1355 </r>
       <r>    -1.0811     0.5383     1.1779 </r>
       <r>    -0.9852     0.7805     1.2434 </r>
       <r>    -0.8894     0.7388     1.3185 </r>
       <r>    -0.7936     0.5784     1.3820 </r>
       <r>    -0.6978     0.4300     1.4283 </r>
       <r>    -0.6019     0.3735     1.4667 </r>
       <r>    -0.5061     0.3315     1.5004 </r>
       <r>    -0.4103     0.3041     1.5307 </r>
       <r>    -0.3144     0.2844     1.5589 </r>
       <r>    -0.2186     0.2680     1.5853 </r>
       <r>    -0.1228     0.2531     1.6103 </r>
       <r>    -0.0270     0.2391     1.6338 </r>
       <r>     0.0689     0.2256     1.6561 </r>
       <r>     0.1647     0.2128     1.6771 </r>
       <r>     0.2605     0.2008     1.6969 </r>
       <r>     0.3564     0.1897     1.7156 </r>
       <r>     0.4522     0.1738     1.7332 </r>
       <r>     0.5480     0.1547     1.7489 </r>
       <r>     0.6438     0.1414     1.7630 </r>
       <r>     0.7397     0.1338     1.7762 </r>
       <r>     0.8355     0.1298     1.7888 </r>
       <r>     0.9313     0.1260     1.8011 </r>
       <r>     1.0271     0.1223     1.8130 </r>
       <r>     1.1230     0.1188     1.8245 </r>
       <r>     1.2188     0.1153     1.8357 </r>
       <r>     1.3146     0.1117     1.8466 </r>
       <r>     1.4105     0.1081     1.8571 </r>
       <r>     1.5063     0.2060     1.8724 </r>
       <r>     1.6021     0.5935     1.9113 </r>
       <r>     1.6979     0.5971     1.9662 </r>
       <r>     1.7938     0.6406     2.0260 </r>
       <r>     1.8896     0.6300     2.0873 </r>
       <r>     1.9854     0.5686     2.1451 </r>
       <r>     2.0813     0.6483     2.2022 </r>
       <r>     2.1771     0.5058     2.2523 </r>
       <r>     2.2729     0.5003     2.3005 </r>
       <r>     2.3687     0.4928     2.3481 </r>
       <r>     2.4646     0.4833     2.3949 </r>
       <r>     2.5604     0.8297     2.4505 </r>
       <r>     2.6562     0.6402     2.5233 </r>
       <r>     2.7521     0.6911     2.5869 </r>
       <r>     2.8479     0.7657     2.6565 </r>
       <r>     2.9437     0.9544     2.7379 </r>
       <r>     3.0395     0.7746     2.8146 </r>
       <r>     3.1354     0.7649     2.8884 </r>
       <r>     3.2312     0.7553     2.9612 </r>
       <r>     3.3270     0.7432     3.0330 </r>
       <r>     3.4229     0.7518     3.1047 </r>
       <r>     3.5187     0.7462     3.1765 </r>
       <r>     3.6145     0.7393     3.2477 </r>
       <r>     3.7103     0.7280     3.3181 </r>
       <r>     3.8062     0.7095     3.3869 </r>
       <r>     3.9020     0.6925     3.4541 </r>
       <r>     3.9978     0.6744     3.5195 </r>
       <r>     4.0936     0.6825     3.5843 </r>
       <r>     4.1895     0.6660     3.6494 </r>
       <r>     4.2853     0.6107     3.7108 </r>
       <r>     4.3811     0.5313     3.7657 </r>
       <r>     4.4770     0.4278     3.8118 </r>
       <r>     4.5728     0.3646     3.8499 </r>
       <r>     4.6686     0.2869     3.8812 </r>
       <r>     4.7644     0.2332     3.9057 </r>
       <r>     4.8603     0.2039     3.9267 </r>
       <r>     4.9561     0.1789     3.9450 </r>
       <r>     5.0519     0.1582     3.9611 </r>
       <r>     5.1478     0.1419     3.9754 </r>
       <r>     5.2436     0.1239     3.9884 </r>
       <r>     5.3394     0.0485     3.9954 </r>
       <r>     5.4352     0.0212     3.9987 </r>
       <r>     5.5311     0.0050     3.9998 </r>
       <r>     5.6269     0.0000     4.0000 </r>
       <r>     5.7227     0.0000     4.0000 </r>
       <r>     5.8186     0.0000     4.0000 </r>
       <r>     5.9144     0.0000     4.0000 </r>
       <r>     6.0102     0.0000     4.0000 </r>
       <r>     6.1060     0.0000     4.0000 </r>
       <r>     6.2019     0.0000     4.0000 </r>
       <r>     6.2977     0.0234     4.0008 </r>
       <r>     6.3935     0.0495     4.0044 </r>
       <r>     6.4894     0.0663     4.0100 </r>
       <r>     6.5852     0.0885     4.0171 </r>
       <r>     6.6810     0.1176     4.0271 </r>
       <r>     6.7768     0.1403     4.0395 </r>
       <r>     6.8727     0.1604     4.0538 </r>
       <r>     6.9685     0.1901     4.0706 </r>
       <r>     7.0643     0.2197     4.0903 </r>
       <r>     7.1601     0.2543     4.1128 </r>
       <r>     7.2560     0.3087     4.1397 </r>
       <r>     7.3518     0.3760     4.1724 </r>
       <r>     7.4476     0.4563     4.2122 </r>
       <r>     7.5435     0.5594     4.2605 </r>
       <r>     7.6393     0.7090     4.3209 </r>
       <r>     7.7351     0.8919     4.3978 </r>
       <r>     7.8309     0.9750     4.4882 </r>
       <r>     7.9268     1.0246     4.5840 </r>
       <r>     8.0226     1.0318     4.6836 </r>
       <r>     8.1184     0.9760     4.7795 </r>
       <r>     8.2143     0.9464     4.8715 </r>
       <r>     8.3101     0.8050     4.9554 </r>
       <r>     8.4059     0.6201     5.0270 </r>
       <r>     8.5017     0.4908     5.0802 </r>
       <r>     8.5976     0.3634     5.1211 </r>
       <r>     8.6934     0.2540     5.1498 </r>
       <r>     8.7892     0.3243     5.1774 </r>
       <r>     8.8851     0.4036     5.2123 </r>
       <r>     8.9809     0.4894     5.2550 </r>
       <r>     9.0767     0.6557     5.3086 </r>
       <r>     9.1725     1.0752     5.3901 </r>
       <r>     9.2684     1.5658     5.5164 </r>
       <r>     9.3642     1.6594     5.6819 </r>
       <r>     9.4600     1.3402     5.8401 </r>
       <r>     9.5559     0.7029     5.9186 </r>
       <r>     9.6517     0.6844     5.9849 </r>
       <r>     9.7475     0.6799     6.0502 </r>
       <r>     9.8433     0.6612     6.1147 </r>
       <r>     9.9392     0.6227     6.1763 </r>
       <r>    10.0350     0.5707     6.2336 </r>
       <r>    10.1308     0.5074     6.2853 </r>
       <r>    10.2266     0.4844     6.3322 </r>
       <r>    10.3225     0.4909     6.3789 </r>
       <r>    10.4183     0.4789     6.4255 </r>
       <r>    10.5141     0.4577     6.4726 </r>
       <r>    10.6100     0.4354     6.5164 </r>
       <r>    10.7058     0.3932     6.5560 </r>
       <r>    10.8016     0.3640     6.5921 </r>
       <r>    10.8974     0.3479     6.6262 </r>
       <r>    10.9933     0.3450     6.6592 </r>
       <r>    11.0891     0.5634     6.6976 </r>
       <r>    11.1849     0.6788     6.7610 </r>
       <r>    11.2808     0.6562     6.8299 </r>
       <r>    11.3766     0.6054     6.8927 </r>
       <r>    11.4724     0.5780     6.9491 </r>
       <r>    11.5682     0.5785     7.0043 </r>
       <r>    11.6641     0.6070     7.0609 </r>
       <r>    11.7599     0.6680     7.1217 </r>
       <r>    11.8557     0.7592     7.1898 </r>
       <r>    11.9516     0.8470     7.2673 </r>
       <r>    12.0474     0.9029     7.3514 </r>
       <r>    12.1432     0.8458     7.4390 </r>
       <r>    12.2390     0.5951     7.5011 </r>
       <r>    12.3349     0.5729     7.5570 </r>
       <r>    12.4307     0.5825     7.6122 </r>
       <r>    12.5265     0.5808     7.6681 </r>
       <r>    12.6224     0.5713     7.7233 </r>
       <r>    12.7182     0.5589     7.7775 </r>
       <r>    12.8140     0.5477     7.8304 </r>
       <r>    12.9098     0.5399     7.8826 </r>
       <r>    13.0057     0.5279     7.9338 </r>
       <r>    13.1015     0.5132     7.9837 </r>
       <r>    13.1973     0.4985     8.0321 </r>
       <r>    13.2931     0.4842     8.0792 </r>
       <r>    13.3890     0.4761     8.1250 </r>
       <r>    13.4848     0.5035     8.1722 </r>
       <r>    13.5806     0.4964     8.2204 </r>
       <r>    13.6765     0.4700     8.2666 </r>
       <r>    13.7723     0.4595     8.3105 </r>
       <r>    13.8681     0.4828     8.3552 </r>
       <r>    13.9639     0.6225     8.4082 </r>
       <r>    14.0598     0.7333     8.4735 </r>
       <r>    14.1556     0.7082     8.5412 </r>
       <r>    14.2514     0.7219     8.6098 </r>
       <r>    14.3473     0.7578     8.6804 </r>
       <r>    14.4431     0.7983     8.7554 </r>
       <r>    14.5389     0.7818     8.8316 </r>
       <r>    14.6347     1.1005     8.9290 </r>
       <r>    14.7306     0.8602     9.0208 </r>
       <r>    14.8264     0.8101     9.1002 </r>
       <r>    14.9222     0.7706     9.1760 </r>
       <r>    15.0181     0.7330     9.2479 </r>
       <r>    15.1139     0.7439     9.3181 </r>
       <r>    15.2097     0.7562     9.3901 </r>
       <r>    15.3055     0.7517     9.4625 </r>
       <r>    15.4014     0.7341     9.5339 </r>
       <r>    15.4972     0.6958     9.6025 </r>
       <r>    15.5930     0.7082     9.6696 </r>
       <r>    15.6889     0.6804     9.7366 </r>
       <r>    15.7847     0.6599     9.8027 </r>
       <r>    15.8805     0.6204     9.8641 </r>
       <r>    15.9763     0.5836     9.9217 </r>
       <r>    16.0722     0.5701     9.9766 </r>
       <r>    16.1680     0.5779    10.0315 </r>
       <r>    16.2638     0.6116    10.0883 </r>
       <r>    16.3596     0.6599    10.1491 </r>
       <r>    16.4555     0.6571    10.2138 </r>
       <r>    16.5513     0.5608    10.2702 </r>
       <r>    16.6471     0.5245    10.3234 </r>
       <r>    16.7430     0.4225    10.3677 </r>
       <r>    16.8388     0.3818    10.4061 </r>
       <r>    16.9346     0.3630    10.4416 </r>
       <r>    17.0304     0.3710    10.4765 </r>
       <r>    17.1263     0.4062    10.5135 </r>
       <r>    17.2221     0.4429    10.5544 </r>
       <r>    17.3179     0.4654    10.5980 </r>
       <r>    17.4138     0.4774    10.6433 </r>
       <r>    17.5096     0.4733    10.6890 </r>
       <r>    17.6054     0.4588    10.7335 </r>
       <r>    17.7012     0.7057    10.7855 </r>
       <r>    17.7971     0.9275    10.8701 </r>
       <r>    17.8929     0.8924    10.9576 </r>
       <r>    17.9887     0.8307    11.0403 </r>
       <r>    18.0846     0.7495    11.1157 </r>
       <r>    18.1804     0.7649    11.1884 </r>
       <r>    18.2762     0.7630    11.2618 </r>
       <r>    18.3720     0.7436    11.3341 </r>
       <r>    18.4679     0.7068    11.4037 </r>
       <r>    18.5637     0.6526    11.4690 </r>
       <r>    18.6595     0.5354    11.5311 </r>
       <r>    18.7554     0.5770    11.5843 </r>
       <r>    18.8512     0.6339    11.6423 </r>
       <r>    18.9470     0.4803    11.6956 </r>
       <r>    19.0428     0.4072    11.7380 </r>
       <r>    19.1387     0.3568    11.7744 </r>
       <r>    19.2345     0.3299    11.8071 </r>
       <r>    19.3303     0.4292    11.8446 </r>
       <r>    19.4261     0.4185    11.8858 </r>
       <r>    19.5220     0.3331    11.9222 </r>
       <r>    19.6178     0.2453    11.9498 </r>
       <r>    19.7136     0.1754    11.9698 </r>
       <r>    19.8095     0.1236    11.9840 </r>
       <r>    19.9053     0.0898    11.9941 </r>
       <r>    20.0011     0.0000    12.0000 </r>
       <r>    20.0969     0.0000    12.0000 </r>
       <r>    20.1928     0.0000    12.0000 </r>
       <r>    20.2886     0.0000    12.0000 </r>
       <r>    20.3844     0.0000    12.0000 </r>
       <r>    20.4803     0.0000    12.0000 </r>
       <r>    20.5761     0.0000    12.0000 </r>
       <r>    20.6719     0.0000    12.0000 </r>
       <r>    20.7677     0.0000    12.0000 </r>
       <r>    20.8636     0.0000    12.0000 </r>
       <r>    20.9594     0.0000    12.0000 </r>
       <r>    21.0552     0.0000    12.0000 </r>
       <r>    21.1511     0.0000    12.0000 </r>
       <r>    21.2469     0.0000    12.0000 </r>
      </set>
      <set comment="spin 2">
       <r>    -7.5016     0.0000     0.0000 </r>
       <r>    -7.4057     0.0000     0.0000 </r>
       <r>    -7.3099     0.0000     0.0000 </r>
       <r>    -7.2141     0.0000     0.0000 </r>
       <r>    -7.1182     0.0000     0.0000 </r>
       <r>    -7.0224     0.0000     0.0000 </r>
       <r>    -6.9266     0.0000     0.0000 </r>
       <r>    -6.8308     0.0000     0.0000 </r>
       <r>    -6.7349     0.0000     0.0000 </r>
       <r>    -6.6391     0.0000     0.0000 </r>
       <r>    -6.5433     0.0000     0.0000 </r>
       <r>    -6.4474     0.0000     0.0000 </r>
       <r>    -6.3516     0.0000     0.0000 </r>
       <r>    -6.2558     0.0000     0.0000 </r>
       <r>    -6.1600     0.0018     0.0000 </r>
       <r>    -6.0641     0.0250     0.0011 </r>
       <r>    -5.9683     0.0751     0.0057 </r>
       <r>    -5.8725     0.0866     0.0143 </r>
       <r>    -5.7766     0.0990     0.0231 </r>
       <r>    -5.6808     0.1148     0.0333 </r>
       <r>    -5.5850     0.1317     0.0451 </r>
       <r>    -5.4892     0.1495     0.0586 </r>
       <r>    -5.3933     0.1639     0.0736 </r>
       <r>    -5.2975     0.1723     0.0898 </r>
       <r>    -5.2017     0.1783     0.1065 </r>
       <r>    -5.1059     0.1900     0.1242 </r>
       <r>    -5.0100     0.2022     0.1430 </r>
       <r>    -4.9142     0.2149     0.1630 </r>
       <r>    -4.8184     0.2280     0.1842 </r>
       <r>    -4.7225     0.2415     0.2067 </r>
       <r>    -4.6267     0.2556     0.2305 </r>
       <r>    -4.5309     0.2676     0.2555 </r>
       <r>    -4.4351     0.2836     0.2819 </r>
       <r>    -4.3392     0.3017     0.3099 </r>
       <r>    -4.2434     0.3220     0.3398 </r>
       <r>    -4.1476     0.3600     0.3721 </r>
       <r>    -4.0517     0.4157     0.4095 </r>
       <r>    -3.9559     0.4457     0.4510 </r>
       <r>    -3.8601     0.4500     0.4941 </r>
       <r>    -3.7643     0.4281     0.5364 </r>
       <r>    -3.6684     0.4366     0.5766 </r>
       <r>    -3.5726     0.4615     0.6202 </r>
       <r>    -3.4768     0.4216     0.6629 </r>
       <r>    -3.3809     0.3918     0.7018 </r>
       <r>    -3.2851     0.3676     0.7381 </r>
       <r>    -3.1893     0.3492     0.7724 </r>
       <r>    -3.0935     0.3386     0.8053 </r>
       <r>    -2.9976     0.3314     0.8375 </r>
       <r>    -2.9018     0.3354     0.8690 </r>
       <r>    -2.8060     0.3369     0.9014 </r>
       <r>    -2.7101     0.3144     0.9328 </r>
       <r>    -2.6143     0.2679     0.9609 </r>
       <r>    -2.5185     0.1179     0.9854 </r>
       <r>    -2.4227     0.0672     0.9942 </r>
       <r>    -2.3268     0.0284     0.9987 </r>
       <r>    -2.2310     0.0015     1.0000 </r>
       <r>    -2.1352     0.0000     1.0000 </r>
       <r>    -2.0394     0.0000     1.0000 </r>
       <r>    -1.9435     0.0000     1.0000 </r>
       <r>    -1.8477     0.0179     1.0007 </r>
       <r>    -1.7519     0.0439     1.0036 </r>
       <r>    -1.6560     0.0764     1.0094 </r>
       <r>    -1.5602     0.1156     1.0185 </r>
       <r>    -1.4644     0.2527     1.0350 </r>
       <r>    -1.3686     0.3285     1.0630 </r>
       <r>    -1.2727     0.3821     1.0972 </r>
       <r>    -1.1769     0.4134     1.1355 </r>
       <r>    -1.0811     0.5386     1.1780 </r>
       <r>    -0.9852     0.7806     1.2434 </r>
       <r>    -0.8894     0.7386     1.3185 </r>
       <r>    -0.7936     0.5782     1.3821 </r>
       <r>    -0.6978     0.4300     1.4284 </r>
       <r>    -0.6019     0.3734     1.4667 </r>
       <r>    -0.5061     0.3315     1.5004 </r>
       <r>    -0.4103     0.3041     1.5307 </r>
       <r>    -0.3144     0.2844     1.5589 </r>
       <r>    -0.2186     0.2680     1.5853 </r>
       <r>    -0.1228     0.2531     1.6103 </r>
       <r>    -0.0270     0.2391     1.6339 </r>
       <r>     0.0689     0.2256     1.6561 </r>
       <r>     0.1647     0.2128     1.6771 </r>
       <r>     0.2605     0.2008     1.6969 </r>
       <r>     0.3564     0.1897     1.7156 </r>
       <r>     0.4522     0.1738     1.7332 </r>
       <r>     0.5480     0.1547     1.7489 </r>
       <r>     0.6438     0.1414     1.7630 </r>
       <r>     0.7397     0.1338     1.7762 </r>
       <r>     0.8355     0.1298     1.7888 </r>
       <r>     0.9313     0.1260     1.8011 </r>
       <r>     1.0271     0.1223     1.8130 </r>
       <r>     1.1230     0.1188     1.8245 </r>
       <r>     1.2188     0.1153     1.8357 </r>
       <r>     1.3146     0.1117     1.8466 </r>
       <r>     1.4105     0.1081     1.8571 </r>
       <r>     1.5063     0.2062     1.8724 </r>
       <r>     1.6021     0.5936     1.9114 </r>
       <r>     1.6979     0.5972     1.9663 </r>
       <r>     1.7938     0.6406     2.0260 </r>
       <r>     1.8896     0.6300     2.0873 </r>
       <r>     1.9854     0.5685     2.1452 </r>
       <r>     2.0813     0.6480     2.2022 </r>
       <r>     2.1771     0.5058     2.2523 </r>
       <r>     2.2729     0.5003     2.3006 </r>
       <r>     2.3687     0.4928     2.3482 </r>
       <r>     2.4646     0.4833     2.3949 </r>
       <r>     2.5604     0.8302     2.4506 </r>
       <r>     2.6562     0.6403     2.5234 </r>
       <r>     2.7521     0.6912     2.5870 </r>
       <r>     2.8479     0.7658     2.6566 </r>
       <r>     2.9437     0.9541     2.7380 </r>
       <r>     3.0395     0.7746     2.8147 </r>
       <r>     3.1354     0.7649     2.8885 </r>
       <r>     3.2312     0.7553     2.9613 </r>
       <r>     3.3270     0.7432     3.0331 </r>
       <r>     3.4229     0.7518     3.1048 </r>
       <r>     3.5187     0.7462     3.1766 </r>
       <r>     3.6145     0.7393     3.2478 </r>
       <r>     3.7103     0.7280     3.3181 </r>
       <r>     3.8062     0.7095     3.3870 </r>
       <r>     3.9020     0.6925     3.4542 </r>
       <r>     3.9978     0.6744     3.5196 </r>
       <r>     4.0936     0.6825     3.5844 </r>
       <r>     4.1895     0.6660     3.6495 </r>
       <r>     4.2853     0.6107     3.7108 </r>
       <r>     4.3811     0.5313     3.7657 </r>
       <r>     4.4770     0.4277     3.8119 </r>
       <r>     4.5728     0.3646     3.8499 </r>
       <r>     4.6686     0.2868     3.8812 </r>
       <r>     4.7644     0.2332     3.9058 </r>
       <r>     4.8603     0.2039     3.9267 </r>
       <r>     4.9561     0.1789     3.9450 </r>
       <r>     5.0519     0.1582     3.9611 </r>
       <r>     5.1478     0.1419     3.9754 </r>
       <r>     5.2436     0.1239     3.9884 </r>
       <r>     5.3394     0.0485     3.9954 </r>
       <r>     5.4352     0.0212     3.9987 </r>
       <r>     5.5311     0.0050     3.9998 </r>
       <r>     5.6269     0.0000     4.0000 </r>
       <r>     5.7227     0.0000     4.0000 </r>
       <r>     5.8186     0.0000     4.0000 </r>
       <r>     5.9144     0.0000     4.0000 </r>
       <r>     6.0102     0.0000     4.0000 </r>
       <r>     6.1060     0.0000     4.0000 </r>
       <r>     6.2019     0.0000     4.0000 </r>
       <r>     6.2977     0.0234     4.0008 </r>
       <r>     6.3935     0.0495     4.0044 </r>
       <r>     6.4894     0.0663     4.0100 </r>
       <r>     6.5852     0.0885     4.0171 </r>
       <r>     6.6810     0.1176     4.0271 </r>
       <r>     6.7768     0.1403     4.0395 </r>
       <r>     6.8727     0.1604     4.0538 </r>
       <r>     6.9685     0.1901     4.0706 </r>
       <r>     7.0643     0.2197     4.0903 </r>
       <r>     7.1601     0.2544     4.1128 </r>
       <r>     7.2560     0.3087     4.1397 </r>
       <r>     7.3518     0.3760     4.1724 </r>
       <r>     7.4476     0.4564     4.2122 </r>
       <r>     7.5435     0.5595     4.2605 </r>
       <r>     7.6393     0.7091     4.3209 </r>
       <r>     7.7351     0.8919     4.3978 </r>
       <r>     7.8309     0.9750     4.4883 </r>
       <r>     7.9268     1.0246     4.5841 </r>
       <r>     8.0226     1.0317     4.6836 </r>
       <r>     8.1184     0.9759     4.7796 </r>
       <r>     8.2143     0.9464     4.8715 </r>
       <r>     8.3101     0.8049     4.9554 </r>
       <r>     8.4059     0.6200     5.0270 </r>
       <r>     8.5017     0.4907     5.0802 </r>
       <r>     8.5976     0.3634     5.1211 </r>
       <r>     8.6934     0.2540     5.1498 </r>
       <r>     8.7892     0.3244     5.1775 </r>
       <r>     8.8851     0.4037     5.2123 </r>
       <r>     8.9809     0.4895     5.2550 </r>
       <r>     9.0767     0.6558     5.3086 </r>
       <r>     9.1725     1.0755     5.3902 </r>
       <r>     9.2684     1.5661     5.5165 </r>
       <r>     9.3642     1.6592     5.6820 </r>
       <r>     9.4600     1.3387     5.8402 </r>
       <r>     9.5559     0.7029     5.9186 </r>
       <r>     9.6517     0.6844     5.9850 </r>
       <r>     9.7475     0.6799     6.0503 </r>
       <r>     9.8433     0.6612     6.1147 </r>
       <r>     9.9392     0.6227     6.1763 </r>
       <r>    10.0350     0.5706     6.2336 </r>
       <r>    10.1308     0.5074     6.2854 </r>
       <r>    10.2266     0.4844     6.3322 </r>
       <r>    10.3225     0.4909     6.3789 </r>
       <r>    10.4183     0.4789     6.4256 </r>
       <r>    10.5141     0.4577     6.4726 </r>
       <r>    10.6100     0.4354     6.5164 </r>
       <r>    10.7058     0.3931     6.5560 </r>
       <r>    10.8016     0.3640     6.5922 </r>
       <r>    10.8974     0.3479     6.6262 </r>
       <r>    10.9933     0.3450     6.6593 </r>
       <r>    11.0891     0.5636     6.6976 </r>
       <r>    11.1849     0.6787     6.7611 </r>
       <r>    11.2808     0.6562     6.8299 </r>
       <r>    11.3766     0.6054     6.8927 </r>
       <r>    11.4724     0.5780     6.9492 </r>
       <r>    11.5682     0.5785     7.0044 </r>
       <r>    11.6641     0.6070     7.0610 </r>
       <r>    11.7599     0.6681     7.1217 </r>
       <r>    11.8557     0.7593     7.1899 </r>
       <r>    11.9516     0.8470     7.2674 </r>
       <r>    12.0474     0.9029     7.3514 </r>
       <r>    12.1432     0.8452     7.4391 </r>
       <r>    12.2390     0.5950     7.5012 </r>
       <r>    12.3349     0.5728     7.5571 </r>
       <r>    12.4307     0.5825     7.6123 </r>
       <r>    12.5265     0.5807     7.6681 </r>
       <r>    12.6224     0.5713     7.7234 </r>
       <r>    12.7182     0.5588     7.7775 </r>
       <r>    12.8140     0.5477     7.8304 </r>
       <r>    12.9098     0.5398     7.8826 </r>
       <r>    13.0057     0.5279     7.9338 </r>
       <r>    13.1015     0.5132     7.9837 </r>
       <r>    13.1973     0.4985     8.0321 </r>
       <r>    13.2931     0.4842     8.0792 </r>
       <r>    13.3890     0.4761     8.1250 </r>
       <r>    13.4848     0.5035     8.1722 </r>
       <r>    13.5806     0.4964     8.2204 </r>
       <r>    13.6765     0.4700     8.2666 </r>
       <r>    13.7723     0.4595     8.3105 </r>
       <r>    13.8681     0.4829     8.3552 </r>
[...]
        <r>  0.0000  0.0237  0.0237  0.0000  0.0000  0.0000  0.0000  0.0000  0.0000 </r>
       </set>
      </set>
      <set comment="kpoint 14">
       <set comment="band 1">
        <r>  0.2102  0.0088  0.0088  0.0048  0.0000  0.0000  0.0000  0.0000  0.0000 </r>
        <r>  0.2102  0.0088  0.0088  0.0048  0.0000  0.0000  0.0000  0.0000  0.0000 </r>
       </set>
       <set comment="band 2">
        <r>  0.1654  0.0160  0.0160  0.0397  0.0000  0.0000  0.0000  0.0000  0.0000 </r>
        <r>  0.1654  0.0160  0.0160  0.0397  0.0000  0.0000  0.0000  0.0000  0.0000 </r>
       </set>
       <set comment="band 3">
        <r>  0.0099  0.0390  0.0390  0.0721  0.0000  0.0000  0.0000  0.0000  0.0000 </r>
        <r>  0.0099  0.0390  0.0390  0.0721  0.0000  0.0000  0.0000  0.0000  0.0000 </r>
       </set>
       <set comment="band 4">
        <r>  0.0000  0.1026  0.1026  0.0000  0.0000  0.0000  0.0000  0.0000  0.0000 </r>
        <r>  0.0000  0.1026  0.1026  0.0000  0.0000  0.0000  0.0000  0.0000  0.0000 </r>
       </set>
       <set comment="band 5">
        <r>  0.0587  0.0015  0.0015  0.0526  0.0000  0.0000  0.0000  0.0000  0.0000 </r>
        <r>  0.0587  0.0015  0.0015  0.0526  0.0000  0.0000  0.0000  0.0000  0.0000 </r>
       </set>
       <set comment="band 6">
        <r>  0.0000  0.0749  0.0749  0.0000  0.0000  0.0000  0.0000  0.0000  0.0000 </r>
        <r>  0.0000  0.0749  0.0749  0.0000  0.0000  0.0000  0.0000  0.0000  0.0000 </r>
       </set>
       <set comment="band 7">
        <r>  0.0256  0.0001  0.0001  0.0936  0.0000  0.0000  0.0000  0.0000  0.0000 </r>
        <r>  0.0256  0.0001  0.0001  0.0936  0.0000  0.0000  0.0000  0.0000  0.0000 </r>
       </set>
       <set comment="band 8">
        <r>  0.0715  0.0525  0.0525  0.0305  0.0000  0.0000  0.0000  0.0000  0.0000 </r>
        <r>  0.0715  0.0525  0.0525  0.0305  0.0000  0.0000  0.0000  0.0000  0.0000 </r>
       </set>
       <set comment="band 9">
        <r>  0.0000  0.0052  0.0052  0.0000  0.0000  0.0000  0.0000  0.0000  0.0000 </r>
        <r>  0.0000  0.0052  0.0052  0.0000  0.0000  0.0000  0.0000  0.0000  0.0000 </r>
       </set>
       <set comment="band 10">
        <r>  0.0171  0.0479  0.0479  0.0402  0.0000  0.0000  0.0000  0.0000  0.0000 </r>
        <r>  0.0171  0.0479  0.0479  0.0402  0.0000  0.0000  0.0000  0.0000  0.0000 </r>
       </set>
       <set comment="band 11">
        <r>  0.0239  0.0064  0.0064  0.0076  0.0000  0.0000  0.0000  0.0000  0.0000 </r>
        <r>  0.0239  0.0064  0.0064  0.0076  0.0000  0.0000  0.0000  0.0000  0.0000 </r>
       </set>
       <set comment="band 12">
        <r>  0.0253  0.0068  0.0068  0.0162  0.0000  0.0000  0.0000  0.0000  0.0000 </r>
        <r>  0.0253  0.0068  0.0068  0.0162  0.0000  0.0000  0.0000  0.0000  0.0000 </r>
       </set>
      </set>
      <set comment="kpoint 15">
       <set comment="band 1">
        <r>  0.1979  0.0000  0.0000  0.0327  0.0000  0.0000  0.0000  0.0000  0.0000 </r>
        <r>  0.1979  0.0000  0.0000  0.0327  0.0000  0.0000  0.0000  0.0000  0.0000 </r>
       </set>
       <set comment="band 2">
        <r>  0.1872  0.0000  0.0000  0.0567  0.0000  0.0000  0.0000  0.0000  0.0000 </r>
        <r>  0.1872  0.0000  0.0000  0.0567  0.0000  0.0000  0.0000  0.0000  0.0000 </r>
       </set>
       <set comment="band 3">
        <r>  0.0000  0.0975  0.0975  0.0000  0.0000  0.0000  0.0000  0.0000  0.0000 </r>
        <r>  0.0000  0.0975  0.0975  0.0000  0.0000  0.0000  0.0000  0.0000  0.0000 </r>
       </set>
       <set comment="band 4">
        <r>  0.0000  0.0975  0.0975  0.0000  0.0000  0.0000  0.0000  0.0000  0.0000 </r>
        <r>  0.0000  0.0975  0.0975  0.0000  0.0000  0.0000  0.0000  0.0000  0.0000 </r>
       </set>
       <set comment="band 5">
        <r>  0.0525  0.0000  0.0000  0.0434  0.0000  0.0000  0.0000  0.0000  0.0000 </r>
        <r>  0.0525  0.0000  0.0000  0.0434  0.0000  0.0000  0.0000  0.0000  0.0000 </r>
       </set>
       <set comment="band 6">
        <r>  0.0480  0.0000  0.0000  0.0323  0.0000  0.0000  0.0000  0.0000  0.0000 </r>
        <r>  0.0480  0.0000  0.0000  0.0323  0.0000  0.0000  0.0000  0.0000  0.0000 </r>
       </set>
       <set comment="band 7">
        <r>  0.0000  0.0869  0.0869  0.0000  0.0000  0.0000  0.0000  0.0000  0.0000 </r>
        <r>  0.0000  0.0869  0.0869  0.0000  0.0000  0.0000  0.0000  0.0000  0.0000 </r>
       </set>
       <set comment="band 8">
        <r>  0.0000  0.0869  0.0869  0.0000  0.0000  0.0000  0.0000  0.0000  0.0000 </r>
        <r>  0.0000  0.0869  0.0869  0.0000  0.0000  0.0000  0.0000  0.0000  0.0000 </r>
       </set>
       <set comment="band 9">
        <r>  0.0000  0.0000  0.0000  0.0000  0.0000  0.0000  0.0000  0.0000  0.0000 </r>
        <r>  0.0000  0.0000  0.0000  0.0000  0.0000  0.0000  0.0000  0.0000  0.0000 </r>
       </set>
       <set comment="band 10">
        <r>  0.0944  0.0000  0.0000  0.1775  0.0000  0.0000  0.0000  0.0000  0.0000 </r>
        <r>  0.0944  0.0000  0.0000  0.1775  0.0000  0.0000  0.0000  0.0000  0.0000 </r>
       </set>
       <set comment="band 11">
        <r>  0.0000  0.0588  0.0137  0.0000  0.0000  0.0000  0.0000  0.0000  0.0000 </r>
        <r>  0.0000  0.0225  0.0500  0.0000  0.0000  0.0000  0.0000  0.0000  0.0000 </r>
       </set>
       <set comment="band 12">
        <r>  0.0000  0.0137  0.0588  0.0000  0.0000  0.0000  0.0000  0.0000  0.0000 </r>
        <r>  0.0000  0.0500  0.0225  0.0000  0.0000  0.0000  0.0000  0.0000  0.0000 </r>
       </set>
      </set>
      <set comment="kpoint 16">
       <set comment="band 1">
        <r>  0.2024  0.0013  0.0013  0.0365  0.0000  0.0000  0.0000  0.0000  0.0000 </r>
        <r>  0.2024  0.0013  0.0013  0.0365  0.0000  0.0000  0.0000  0.0000  0.0000 </r>
       </set>
       <set comment="band 2">
        <r>  0.1901  0.0018  0.0018  0.0435  0.0000  0.0000  0.0000  0.0000  0.0000 </r>
        <r>  0.1901  0.0018  0.0018  0.0435  0.0000  0.0000  0.0000  0.0000  0.0000 </r>
       </set>
       <set comment="band 3">
        <r>  0.0021  0.0731  0.0731  0.0199  0.0000  0.0000  0.0000  0.0000  0.0000 </r>
        <r>  0.0021  0.0731  0.0731  0.0199  0.0000  0.0000  0.0000  0.0000  0.0000 </r>
       </set>
       <set comment="band 4">
        <r>  0.0000  0.0980  0.0980  0.0000  0.0000  0.0000  0.0000  0.0000  0.0000 </r>
        <r>  0.0000  0.0980  0.0980  0.0000  0.0000  0.0000  0.0000  0.0000  0.0000 </r>
       </set>
       <set comment="band 5">
        <r>  0.0514  0.0003  0.0003  0.0374  0.0000  0.0000  0.0000  0.0000  0.0000 </r>
        <r>  0.0514  0.0003  0.0003  0.0374  0.0000  0.0000  0.0000  0.0000  0.0000 </r>
       </set>
       <set comment="band 6">
        <r>  0.0377  0.0227  0.0227  0.0239  0.0000  0.0000  0.0000  0.0000  0.0000 </r>
        <r>  0.0377  0.0227  0.0227  0.0239  0.0000  0.0000  0.0000  0.0000  0.0000 </r>
       </set>
       <set comment="band 7">
        <r>  0.0000  0.0895  0.0895  0.0000  0.0000  0.0000  0.0000  0.0000  0.0000 </r>
        <r>  0.0000  0.0895  0.0895  0.0000  0.0000  0.0000  0.0000  0.0000  0.0000 </r>
       </set>
       <set comment="band 8">
        <r>  0.0278  0.0918  0.0918  0.0256  0.0000  0.0000  0.0000  0.0000  0.0000 </r>
        <r>  0.0278  0.0918  0.0918  0.0256  0.0000  0.0000  0.0000  0.0000  0.0000 </r>
       </set>
       <set comment="band 9">
        <r>  0.0229  0.0014  0.0014  0.0777  0.0000  0.0000  0.0000  0.0000  0.0000 </r>
        <r>  0.0229  0.0014  0.0014  0.0777  0.0000  0.0000  0.0000  0.0000  0.0000 </r>
       </set>
       <set comment="band 10">
        <r>  0.0000  0.0060  0.0060  0.0000  0.0000  0.0000  0.0000  0.0000  0.0000 </r>
        <r>  0.0000  0.0060  0.0060  0.0000  0.0000  0.0000  0.0000  0.0000  0.0000 </r>
       </set>
       <set comment="band 11">
        <r>  0.0280  0.0170  0.0311  0.1741  0.0000  0.0000  0.0000  0.0000  0.0000 </r>
        <r>  0.0282  0.0311  0.0170  0.1731  0.0000  0.0000  0.0000  0.0000  0.0000 </r>
       </set>
       <set comment="band 12">
        <r>  0.0001  0.0001  0.0004  0.0006  0.0000  0.0000  0.0000  0.0000  0.0000 </r>
        <r>  0.0001  0.0004  0.0001  0.0006  0.0000  0.0000  0.0000  0.0000  0.0000 </r>
       </set>
      </set>
      <set comment="kpoint 17">
       <set comment="band 1">
        <r>  0.2064  0.0025  0.0008  0.0135  0.0000  0.0000  0.0000  0.0000  0.0000 </r>
        <r>  0.2064  0.0025  0.0008  0.0135  0.0000  0.0000  0.0000  0.0000  0.0000 </r>
       </set>
       <set comment="band 2">
        <r>  0.1566  0.0135  0.0266  0.0460  0.0000  0.0000  0.0000  0.0000  0.0000 </r>
        <r>  0.1566  0.0135  0.0266  0.0460  0.0000  0.0000  0.0000  0.0000  0.0000 </r>
       </set>
       <set comment="band 3">
        <r>  0.0114  0.0506  0.0919  0.0206  0.0000  0.0000  0.0000  0.0000  0.0000 </r>
        <r>  0.0114  0.0506  0.0919  0.0206  0.0000  0.0000  0.0000  0.0000  0.0000 </r>
       </set>
       <set comment="band 4">
        <r>  0.0064  0.1024  0.0306  0.0580  0.0000  0.0000  0.0000  0.0000  0.0000 </r>
        <r>  0.0064  0.1024  0.0306  0.0580  0.0000  0.0000  0.0000  0.0000  0.0000 </r>
       </set>
       <set comment="band 5">
        <r>  0.0284  0.0253  0.0284  0.0513  0.0000  0.0000  0.0000  0.0000  0.0000 </r>
        <r>  0.0284  0.0253  0.0284  0.0513  0.0000  0.0000  0.0000  0.0000  0.0000 </r>
       </set>
       <set comment="band 6">
        <r>  0.0632  0.0090  0.0213  0.0299  0.0000  0.0000  0.0000  0.0000  0.0000 </r>
        <r>  0.0632  0.0090  0.0213  0.0299  0.0000  0.0000  0.0000  0.0000  0.0000 </r>
       </set>
       <set comment="band 7">
        <r>  0.0285  0.0527  0.0428  0.0049  0.0000  0.0000  0.0000  0.0000  0.0000 </r>
        <r>  0.0285  0.0527  0.0428  0.0049  0.0000  0.0000  0.0000  0.0000  0.0000 </r>
       </set>
       <set comment="band 8">
        <r>  0.0065  0.0575  0.0818  0.0116  0.0000  0.0000  0.0000  0.0000  0.0000 </r>
        <r>  0.0065  0.0575  0.0818  0.0116  0.0000  0.0000  0.0000  0.0000  0.0000 </r>
       </set>
       <set comment="band 9">
        <r>  0.0411  0.0081  0.0026  0.0465  0.0000  0.0000  0.0000  0.0000  0.0000 </r>
        <r>  0.0411  0.0081  0.0026  0.0465  0.0000  0.0000  0.0000  0.0000  0.0000 </r>
       </set>
       <set comment="band 10">
        <r>  0.0005  0.0324  0.0314  0.0740  0.0000  0.0000  0.0000  0.0000  0.0000 </r>
        <r>  0.0005  0.0324  0.0314  0.0740  0.0000  0.0000  0.0000  0.0000  0.0000 </r>
       </set>
       <set comment="band 11">
        <r>  0.0493  0.0363  0.0238  0.0524  0.0000  0.0000  0.0000  0.0000  0.0000 </r>
        <r>  0.0493  0.0363  0.0238  0.0524  0.0000  0.0000  0.0000  0.0000  0.0000 </r>
       </set>
       <set comment="band 12">
        <r>  0.0117  0.0033  0.0005  0.0000  0.0000  0.0000  0.0000  0.0000  0.0000 </r>
        <r>  0.0116  0.0033  0.0005  0.0000  0.0000  0.0000  0.0000  0.0000  0.0000 </r>
       </set>
      </set>
      <set comment="kpoint 18">
       <set comment="band 1">
        <r>  0.2115  0.0032  0.0047  0.0154  0.0000  0.0000  0.0000  0.0000  0.0000 </r>
        <r>  0.2115  0.0032  0.0047  0.0154  0.0000  0.0000  0.0000  0.0000  0.0000 </r>
       </set>
       <set comment="band 2">
        <r>  0.1540  0.0147  0.0311  0.0276  0.0000  0.0000  0.0000  0.0000  0.0000 </r>
        <r>  0.1540  0.0147  0.0311  0.0276  0.0000  0.0000  0.0000  0.0000  0.0000 </r>
       </set>
       <set comment="band 3">
        <r>  0.0266  0.0394  0.0685  0.0418  0.0000  0.0000  0.0000  0.0000  0.0000 </r>
        <r>  0.0266  0.0394  0.0685  0.0418  0.0000  0.0000  0.0000  0.0000  0.0000 </r>
       </set>
       <set comment="band 4">
        <r>  0.0021  0.0973  0.0345  0.0531  0.0000  0.0000  0.0000  0.0000  0.0000 </r>
        <r>  0.0021  0.0973  0.0345  0.0531  0.0000  0.0000  0.0000  0.0000  0.0000 </r>
       </set>
       <set comment="band 5">
        <r>  0.0380  0.0294  0.0189  0.0364  0.0000  0.0000  0.0000  0.0000  0.0000 </r>
        <r>  0.0380  0.0294  0.0189  0.0364  0.0000  0.0000  0.0000  0.0000  0.0000 </r>
       </set>
       <set comment="band 6">
        <r>  0.0403  0.0387  0.0367  0.0119  0.0000  0.0000  0.0000  0.0000  0.0000 </r>
        <r>  0.0403  0.0387  0.0367  0.0119  0.0000  0.0000  0.0000  0.0000  0.0000 </r>
       </set>
       <set comment="band 7">
        <r>  0.0321  0.0397  0.0321  0.0239  0.0000  0.0000  0.0000  0.0000  0.0000 </r>
        <r>  0.0321  0.0397  0.0321  0.0239  0.0000  0.0000  0.0000  0.0000  0.0000 </r>
       </set>
       <set comment="band 8">
        <r>  0.0165  0.0376  0.0560  0.0278  0.0000  0.0000  0.0000  0.0000  0.0000 </r>
        <r>  0.0165  0.0376  0.0560  0.0278  0.0000  0.0000  0.0000  0.0000  0.0000 </r>
       </set>
       <set comment="band 9">
        <r>  0.0133  0.0393  0.0250  0.0530  0.0000  0.0000  0.0000  0.0000  0.0000 </r>
        <r>  0.0133  0.0393  0.0250  0.0530  0.0000  0.0000  0.0000  0.0000  0.0000 </r>
       </set>
       <set comment="band 10">
        <r>  0.0168  0.0142  0.0280  0.0437  0.0000  0.0000  0.0000  0.0000  0.0000 </r>
        <r>  0.0168  0.0142  0.0280  0.0437  0.0000  0.0000  0.0000  0.0000  0.0000 </r>
       </set>
       <set comment="band 11">
        <r>  0.0184  0.0049  0.0084  0.0260  0.0000  0.0000  0.0000  0.0000  0.0000 </r>
        <r>  0.0184  0.0049  0.0084  0.0260  0.0000  0.0000  0.0000  0.0000  0.0000 </r>
       </set>
       <set comment="band 12">
        <r>  0.0204  0.0215  0.0639  0.0175  0.0000  0.0000  0.0000  0.0000  0.0000 </r>
        <r>  0.0204  0.0215  0.0639  0.0175  0.0000  0.0000  0.0000  0.0000  0.0000 </r>
       </set>
      </set>
      <set comment="kpoint 19">
       <set comment="band 1">
        <r>  0.2027  0.0008  0.0032  0.0283  0.0000  0.0000  0.0000  0.0000  0.0000 </r>
        <r>  0.2027  0.0008  0.0032  0.0283  0.0000  0.0000  0.0000  0.0000  0.0000 </r>
       </set>
       <set comment="band 2">
        <r>  0.1922  0.0007  0.0114  0.0423  0.0000  0.0000  0.0000  0.0000  0.0000 </r>
        <r>  0.1922  0.0007  0.0114  0.0423  0.0000  0.0000  0.0000  0.0000  0.0000 </r>
       </set>
       <set comment="band 3">
        <r>  0.0062  0.0669  0.0787  0.0180  0.0000  0.0000  0.0000  0.0000  0.0000 </r>
        <r>  0.0062  0.0669  0.0787  0.0180  0.0000  0.0000  0.0000  0.0000  0.0000 </r>
       </set>
       <set comment="band 4">
        <r>  0.0000  0.0852  0.0613  0.0267  0.0000  0.0000  0.0000  0.0000  0.0000 </r>
        <r>  0.0000  0.0852  0.0613  0.0267  0.0000  0.0000  0.0000  0.0000  0.0000 </r>
       </set>
       <set comment="band 5">
        <r>  0.0362  0.0291  0.0207  0.0307  0.0000  0.0000  0.0000  0.0000  0.0000 </r>
        <r>  0.0362  0.0291  0.0207  0.0307  0.0000  0.0000  0.0000  0.0000  0.0000 </r>
       </set>
       <set comment="band 6">
        <r>  0.0369  0.0284  0.0133  0.0210  0.0000  0.0000  0.0000  0.0000  0.0000 </r>
        <r>  0.0369  0.0284  0.0133  0.0210  0.0000  0.0000  0.0000  0.0000  0.0000 </r>
       </set>
       <set comment="band 7">
        <r>  0.0316  0.0533  0.0363  0.0252  0.0000  0.0000  0.0000  0.0000  0.0000 </r>
        <r>  0.0316  0.0533  0.0363  0.0252  0.0000  0.0000  0.0000  0.0000  0.0000 </r>
       </set>
       <set comment="band 8">
        <r>  0.0164  0.0802  0.0659  0.0209  0.0000  0.0000  0.0000  0.0000  0.0000 </r>
        <r>  0.0164  0.0802  0.0659  0.0209  0.0000  0.0000  0.0000  0.0000  0.0000 </r>
       </set>
       <set comment="band 9">
        <r>  0.0003  0.0125  0.0455  0.0342  0.0000  0.0000  0.0000  0.0000  0.0000 </r>
        <r>  0.0003  0.0125  0.0455  0.0342  0.0000  0.0000  0.0000  0.0000  0.0000 </r>
       </set>
       <set comment="band 10">
        <r>  0.0285  0.0125  0.0016  0.0785  0.0000  0.0000  0.0000  0.0000  0.0000 </r>
        <r>  0.0285  0.0125  0.0016  0.0785  0.0000  0.0000  0.0000  0.0000  0.0000 </r>
       </set>
       <set comment="band 11">
        <r>  0.0068  0.0243  0.0824  0.0009  0.0000  0.0000  0.0000  0.0000  0.0000 </r>
        <r>  0.0068  0.0243  0.0824  0.0009  0.0000  0.0000  0.0000  0.0000  0.0000 </r>
       </set>
       <set comment="band 12">
        <r>  0.0057  0.0012  0.0085  0.1098  0.0000  0.0000  0.0000  0.0000  0.0000 </r>
        <r>  0.0057  0.0012  0.0085  0.1098  0.0000  0.0000  0.0000  0.0000  0.0000 </r>
       </set>
      </set>
      <set comment="kpoint 20">
       <set comment="band 1">
        <r>  0.2110  0.0015  0.0142  0.0168  0.0000  0.0000  0.0000  0.0000  0.0000 </r>
        <r>  0.2110  0.0015  0.0142  0.0168  0.0000  0.0000  0.0000  0.0000  0.0000 </r>
       </set>
       <set comment="band 2">
        <r>  0.1905  0.0022  0.0150  0.0344  0.0000  0.0000  0.0000  0.0000  0.0000 </r>
        <r>  0.1905  0.0022  0.0150  0.0344  0.0000  0.0000  0.0000  0.0000  0.0000 </r>
       </set>
       <set comment="band 3">
        <r>  0.0008  0.0592  0.0442  0.0509  0.0000  0.0000  0.0000  0.0000  0.0000 </r>
        <r>  0.0008  0.0592  0.0442  0.0509  0.0000  0.0000  0.0000  0.0000  0.0000 </r>
       </set>
       <set comment="band 4">
        <r>  0.0027  0.0806  0.0695  0.0217  0.0000  0.0000  0.0000  0.0000  0.0000 </r>
        <r>  0.0027  0.0806  0.0695  0.0217  0.0000  0.0000  0.0000  0.0000  0.0000 </r>
       </set>
       <set comment="band 5">
        <r>  0.0357  0.0369  0.0121  0.0269  0.0000  0.0000  0.0000  0.0000  0.0000 </r>
        <r>  0.0357  0.0369  0.0121  0.0269  0.0000  0.0000  0.0000  0.0000  0.0000 </r>
       </set>
       <set comment="band 6">
        <r>  0.0034  0.0800  0.0048  0.0008  0.0000  0.0000  0.0000  0.0000  0.0000 </r>
        <r>  0.0034  0.0800  0.0048  0.0008  0.0000  0.0000  0.0000  0.0000  0.0000 </r>
       </set>
       <set comment="band 7">
        <r>  0.0457  0.0068  0.0641  0.0518  0.0000  0.0000  0.0000  0.0000  0.0000 </r>
        <r>  0.0457  0.0068  0.0641  0.0518  0.0000  0.0000  0.0000  0.0000  0.0000 </r>
       </set>
       <set comment="band 8">
        <r>  0.0381  0.0413  0.0244  0.0298  0.0000  0.0000  0.0000  0.0000  0.0000 </r>
        <r>  0.0381  0.0413  0.0244  0.0298  0.0000  0.0000  0.0000  0.0000  0.0000 </r>
       </set>
       <set comment="band 9">
        <r>  0.0065  0.0381  0.0328  0.0684  0.0000  0.0000  0.0000  0.0000  0.0000 </r>
        <r>  0.0065  0.0381  0.0328  0.0684  0.0000  0.0000  0.0000  0.0000  0.0000 </r>
       </set>
       <set comment="band 10">
        <r>  0.0181  0.0177  0.0776  0.0015  0.0000  0.0000  0.0000  0.0000  0.0000 </r>
        <r>  0.0181  0.0177  0.0776  0.0015  0.0000  0.0000  0.0000  0.0000  0.0000 </r>
       </set>
       <set comment="band 11">
        <r>  0.0111  0.0192  0.0008  0.1038  0.0000  0.0000  0.0000  0.0000  0.0000 </r>
        <r>  0.0111  0.0192  0.0008  0.1038  0.0000  0.0000  0.0000  0.0000  0.0000 </r>
       </set>
       <set comment="band 12">
        <r>  0.0083  0.0029  0.0829  0.0315  0.0000  0.0000  0.0000  0.0000  0.0000 </r>
        <r>  0.0081  0.0028  0.0837  0.0310  0.0000  0.0000  0.0000  0.0000  0.0000 </r>
       </set>
      </set>
     </set>
    </set>
   </array>
  </projected>
 </calculation>
 <structure name="finalpos" >
  <crystal>
   <varray name="basis" >
    <v>      -2.73425687      -2.73425687      -0.00000000 </v>
    <v>      -2.73425687      -0.00000000      -2.73425687 </v>
    <v>       0.00000000      -2.73425687      -2.73425687 </v>
   </varray>
   <i name="volume">     40.88348719 </i>
   <varray name="rec_basis" >
    <v>      -0.18286504      -0.18286504       0.18286504 </v>
    <v>      -0.18286504       0.18286504      -0.18286504 </v>
    <v>       0.18286504      -0.18286504      -0.18286504 </v>
   </varray>
  </crystal>
  <varray name="positions" >
   <v>       0.00000000      -0.00000000      -0.00000000 </v>
   <v>       0.75000000       0.75000000       0.75000000 </v>
  </varray>
 </structure>
</modeling>
