unknown system                          
           1
    -2.690500   -2.690500    0.000000
    -2.690500    0.000000   -2.690500
     0.000000   -2.690500   -2.690500
   Si
   2
unknown system                          
           1
    -2.766427   -2.766427   -0.000000
    -2.766427   -0.000000   -2.766427
     0.000000   -2.766427   -2.766427
   Si
   2
Direct configuration=     1
   0.00000000  0.00000000  0.00000000
   0.75000000  0.75000000  0.75000000
unknown system                          
           1
    -2.734257   -2.734257   -0.000000
    -2.734257   -0.000000   -2.734257
     0.000000   -2.734257   -2.734257
   Si
   2
Direct configuration=     2
   0.00000000 -0.00000000 -0.00000000
   0.75000000  0.75000000  0.75000000
unknown system                          
           1
    -2.734257   -2.734257   -0.000000
    -2.734257   -0.000000   -2.734257
     0.000000   -2.734257   -2.734257
   Si
   2
Direct configuration=     3
   0.00000000 -0.00000000 -0.00000000
   0.75000000  0.75000000  0.75000000
