unknown system                          
   1.00000000000000     
     0.000000    2.734257    2.734257
     2.734257    0.000000    2.734257
     2.734257    2.734257    0.000000
   Si
     2
Direct
  0.000000  0.000000  0.000000
  0.250000  0.250000  0.250000
 
   60   60   60
 0.20525326686E+04 0.89391181549E+02 0.94805450828E+02 0.61299261808E+02 0.22928514033E+02
 0.42328038978E+01 0.20050487228E+00 0.28654138193E+01 0.73169635436E+01 0.11327396509E+02
 0.14188138286E+02 0.15891438167E+02 0.16635821328E+02 0.16647752578E+02 0.16153416633E+02
 0.15352437620E+02 0.14409222519E+02 0.13429191169E+02 0.12455906401E+02 0.11522240289E+02
 0.10653686684E+02 0.98670164755E+01 0.91705655573E+01 0.85659212986E+01 0.80504033501E+01
 0.76196239703E+01 0.72695215905E+01 0.69975099444E+01 0.68026896485E+01 0.66853456362E+01
 0.66461281622E+01 0.66853456362E+01 0.68026896485E+01 0.69975099444E+01 0.72695215905E+01
 0.76196239703E+01 0.80504033501E+01 0.85659212986E+01 0.91705655573E+01 0.98670164755E+01
 0.10653686684E+02 0.11522240289E+02 0.12455906401E+02 0.13429191169E+02 0.14409222519E+02
 0.15352437620E+02 0.16153416633E+02 0.16647752578E+02 0.16635821328E+02 0.15891438167E+02
 0.14188138286E+02 0.11327396509E+02 0.73169635436E+01 0.28654138193E+01 0.20050487228E+00
 0.42328038978E+01 0.22928514033E+02 0.61299261808E+02 0.94805450828E+02 0.89391181549E+02
 0.89391181549E+02 0.93947614567E+02 0.76952261152E+02 0.36184184952E+02 0.10099951194E+02
 0.11777399945E+01 0.18128568457E+01 0.59202288460E+01 0.10314716299E+02 0.13749887642E+02
 0.15979817847E+02 0.17149922297E+02 0.17479561122E+02 0.17198561575E+02 0.16520956240E+02
 0.15627376535E+02 0.14655865518E+02 0.13671773049E+02 0.12710223664E+02 0.11800397019E+02
 0.10963482981E+02 0.10212102255E+02 0.95512814799E+01 0.89805744539E+01 0.84966521843E+01
 0.80956646967E+01 0.77748529362E+01 0.75331804668E+01 0.73710728893E+01 0.72896065587E+01
 0.72896065587E+01 0.73710728893E+01 0.75331804668E+01 0.77748529362E+01 0.80956646967E+01
 0.84966521843E+01 0.89805744539E+01 0.95512814799E+01 0.10212102255E+02 0.10963482981E+02
 0.11800397019E+02 0.12710223664E+02 0.13671773049E+02 0.14655865518E+02 0.15627376535E+02
 0.16520956240E+02 0.17198561575E+02 0.17479561122E+02 0.17149922297E+02 0.15979817847E+02
 0.13749887642E+02 0.10314716299E+02 0.59202288460E+01 0.18128568457E+01 0.11777399945E+01
 0.10099951194E+02 0.36184184952E+02 0.76952261152E+02 0.93947614567E+02 0.89391181549E+02
 0.94805450828E+02 0.76952261152E+02 0.41709617900E+02 0.14531131541E+02 0.27155854515E+01
 0.14648879826E+01 0.49243850699E+01 0.94233527280E+01 0.13271162515E+02 0.15956775378E+02
 0.17524756016E+02 0.18173739121E+02 0.18125628844E+02 0.17599694638E+02 0.16787349019E+02
 0.15845254191E+02 0.14868317936E+02 0.13896407633E+02 0.12961069545E+02 0.12087002703E+02
 0.11290751365E+02 0.10580913146E+02 0.99597190924E+01 0.94254381201E+01 0.89748956216E+01
 0.86054650199E+01 0.83161309368E+01 0.81075488628E+01 0.79813392068E+01 0.79390592708E+01
 0.79813392068E+01 0.81075488628E+01 0.83161309368E+01 0.86054650199E+01 0.89748956216E+01
 0.94254381201E+01 0.99597190924E+01 0.10580913146E+02 0.11290751365E+02 0.12087002703E+02
 0.12961069545E+02 0.13896407633E+02 0.14868317936E+02 0.15845254191E+02 0.16787349019E+02
 0.17599694638E+02 0.18125628844E+02 0.18173739121E+02 0.17524756016E+02 0.15956775378E+02
 0.13271162515E+02 0.94233527280E+01 0.49243850699E+01 0.14648879826E+01 0.27155854515E+01
 0.14531131541E+02 0.41709617900E+02 0.76952261152E+02 0.94805450828E+02 0.93857142113E+02
 0.61299261808E+02 0.36184184952E+02 0.14531131541E+02 0.34509302665E+01 0.14700887876E+01
 0.43701822347E+01 0.87774432656E+01 0.12848095472E+02 0.15874006448E+02 0.17779856711E+02
 0.18724563549E+02 0.18911777747E+02 0.18555190566E+02 0.17850638985E+02 0.16962765855E+02
 0.16011732610E+02 0.15048572372E+02 0.14105919030E+02 0.13210866109E+02 0.12383178284E+02
 0.11634803696E+02 0.10970826502E+02 0.10391511966E+02 0.98948013243E+01 0.94785577135E+01
 0.91420204071E+01 0.88862234681E+01 0.87134787724E+01 0.86263034663E+01 0.86263034663E+01
 0.87134787724E+01 0.88862234681E+01 0.91420204071E+01 0.94785577135E+01 0.98948013243E+01
 0.10391511966E+02 0.10970826502E+02 0.11634803696E+02 0.12383178284E+02 0.13210866109E+02
 0.14105919030E+02 0.15048572372E+02 0.16011732610E+02 0.16962765855E+02 0.17850638985E+02
 0.18555190566E+02 0.18911777747E+02 0.18724563549E+02 0.17779856711E+02 0.15874006448E+02
 0.12848095472E+02 0.87774432656E+01 0.43701822347E+01 0.14700887876E+01 0.34509302665E+01
 0.14531131541E+02 0.36184184952E+02 0.61299261808E+02 0.76695818831E+02 0.76695818831E+02
 0.22928514033E+02 0.10099951194E+02 0.27155854515E+01 0.14700887876E+01 0.41992443153E+01
 0.84438178950E+01 0.12560881513E+02 0.15783305505E+02 0.17938790160E+02 0.19132310672E+02
 0.19539451463E+02 0.19357859118E+02 0.18779571579E+02 0.17971805140E+02 0.17065805602E+02
 0.16131446399E+02 0.15201385180E+02 0.14303973678E+02 0.13461277405E+02 0.12688063424E+02
 0.11992143529E+02 0.11375958020E+02 0.10838891785E+02 0.10379634284E+02 0.99979458280E+01
 0.96954324852E+01 0.94752752675E+01 0.93411921146E+01 0.92961262662E+01 0.93411921146E+01
 0.94752752675E+01 0.96954324852E+01 0.99979458280E+01 0.10379634284E+02 0.10838891785E+02
 0.11375958020E+02 0.11992143529E+02 0.12688063424E+02 0.13461277405E+02 0.14303973678E+02
 0.15201385180E+02 0.16131446399E+02 0.17065805602E+02 0.17971805140E+02 0.18779571579E+02
 0.19357859118E+02 0.19539451463E+02 0.19132310672E+02 0.17938790160E+02 0.15783305505E+02
 0.12560881513E+02 0.84438178950E+01 0.41992443153E+01 0.14700887876E+01 0.27155854515E+01
 0.10099951194E+02 0.22928514033E+02 0.35712364949E+02 0.41071804445E+02 0.35712364949E+02
 0.42328038978E+01 0.11777399945E+01 0.14648879826E+01 0.43701822347E+01 0.84438178950E+01
 0.12459733618E+02 0.15726499841E+02 0.18023622843E+02 0.19400516360E+02 0.19996009799E+02
 0.19982876359E+02 0.19540828100E+02 0.18832207149E+02 0.17993593739E+02 0.17108321756E+02
 0.16211641165E+02 0.15332151506E+02 0.14493226151E+02 0.13711697357E+02 0.12997696163E+02
 0.12355755591E+02 0.11786844303E+02 0.11290713485E+02 0.10867878617E+02 0.10520715439E+02
 0.10253462573E+02 0.10071283200E+02 0.99788229733E+01 0.99788229733E+01 0.10071283200E+02
 0.10253462573E+02 0.10520715439E+02 0.10867878617E+02 0.11290713485E+02 0.11786844303E+02
 0.12355755591E+02 0.12997696163E+02 0.13711697357E+02 0.14493226151E+02 0.15332151506E+02
 0.16211641165E+02 0.17108321756E+02 0.17993593739E+02 0.18832207149E+02 0.19540828100E+02
 0.19982876359E+02 0.19996009799E+02 0.19400516360E+02 0.18023622843E+02 0.15726499841E+02
 0.12459733618E+02 0.84438178950E+01 0.43701822347E+01 0.14648879826E+01 0.11777399945E+01
 0.42328038978E+01 0.93941455378E+01 0.13443807707E+02 0.13443807707E+02 0.93941455378E+01
 0.20050487228E+00 0.18128568457E+01 0.49243850699E+01 0.87774432656E+01 0.12560881513E+02
 0.15726499841E+02 0.18050007892E+02 0.19533315416E+02 0.20273095456E+02 0.20410714686E+02
 0.20106191171E+02 0.19511592588E+02 0.18759584480E+02 0.17943088081E+02 0.17100517030E+02
 0.16259913265E+02 0.15445014865E+02 0.14673854238E+02 0.13958252749E+02 0.13304497017E+02
 0.12715048670E+02 0.12190785437E+02 0.11733106664E+02 0.11345298819E+02 0.11032815047E+02
 0.10802484034E+02 0.10660999692E+02 0.10613242952E+02 0.10660999692E+02 0.10802484034E+02
 0.11032815047E+02 0.11345298819E+02 0.11733106664E+02 0.12190785437E+02 0.12715048670E+02
 0.13304497017E+02 0.13958252749E+02 0.14673854238E+02 0.15445014865E+02 0.16259913265E+02
 0.17100517030E+02 0.17943088081E+02 0.18759584480E+02 0.19511592588E+02 0.20106191171E+02
 0.20410714686E+02 0.20273095456E+02 0.19533315416E+02 0.18050007892E+02 0.15726499841E+02
 0.12560881513E+02 0.87774432656E+01 0.49243850699E+01 0.18128568457E+01 0.20050487228E+00
 0.24798807764E+00 0.11698437369E+01 0.16894019220E+01 0.11698437369E+01 0.24798807764E+00
 0.28654138193E+01 0.59202288460E+01 0.94233527280E+01 0.12848095472E+02 0.15783305505E+02
 0.18023622843E+02 0.19533315416E+02 0.20365966535E+02 0.20628069446E+02 0.20454366495E+02
 0.19981175181E+02 0.19332227235E+02 0.18602587531E+02 0.17833738930E+02 0.17052569893E+02
 0.16282367891E+02 0.15541493866E+02 0.14842698308E+02 0.14193471673E+02 0.13597445205E+02
 0.13056477097E+02 0.12572811343E+02 0.12150662084E+02 0.11796762247E+02 0.11519754108E+02
 0.11328667515E+02 0.11230999687E+02 0.11230999687E+02 0.11328667515E+02 0.11519754108E+02
 0.11796762247E+02 0.12150662084E+02 0.12572811343E+02 0.13056477097E+02 0.13597445205E+02
 0.14193471673E+02 0.14842698308E+02 0.15541493866E+02 0.16282367891E+02 0.17052569893E+02
 0.17833738930E+02 0.18602587531E+02 0.19332227235E+02 0.19981175181E+02 0.20454366495E+02
 0.20628069446E+02 0.20365966535E+02 0.19533315416E+02 0.18023622843E+02 0.15783305505E+02
 0.12848095472E+02 0.94233527280E+01 0.59202288460E+01 0.28654138193E+01 0.69039327040E+00
 -.49865416257E+00 -.94471779064E+00 -.94471779064E+00 -.49865416257E+00 0.69039327040E+00
 0.73169635436E+01 0.10314716299E+02 0.13271162515E+02 0.15874006448E+02 0.17938790160E+02
 0.19400516360E+02 0.20273095456E+02 0.20628069446E+02 0.20571954194E+02 0.20221118942E+02
 0.19686556610E+02 0.19059088895E+02 0.18381315273E+02 0.17678534199E+02 0.16972921839E+02
 0.16282367891E+02 0.15619751393E+02 0.14993081681E+02 0.14406643492E+02 0.13862918595E+02
 0.13364755140E+02 0.12917132643E+02 0.12527973331E+02 0.12207746072E+02 0.11967989114E+02
 0.11819203001E+02 0.11768729236E+02 0.11819203001E+02 0.11967989114E+02 0.12207746072E+02
 0.12527973331E+02 0.12917132643E+02 0.13364755140E+02 0.13862918595E+02 0.14406643492E+02
 0.14993081681E+02 0.15619751393E+02 0.16282367891E+02 0.16972921839E+02 0.17678534199E+02
 0.18381315273E+02 0.19059088895E+02 0.19686556610E+02 0.20221118942E+02 0.20571954194E+02
 0.20628069446E+02 0.20273095456E+02 0.19400516360E+02 0.17938790160E+02 0.15874006448E+02
 0.13271162515E+02 0.10314716299E+02 0.73169635436E+01 0.46475227775E+01 0.26157457914E+01
 0.13827865723E+01 0.97535340287E+00 0.13827865723E+01 0.26157457914E+01 0.46475227775E+01
 0.11327396509E+02 0.13749887642E+02 0.15956775378E+02 0.17779856711E+02 0.19132310672E+02
 0.19996009799E+02 0.20410714686E+02 0.20454366495E+02 0.20221118942E+02 0.19806514510E+02
 0.19292586208E+02 0.18719832020E+02 0.18111614083E+02 0.17488479230E+02 0.16867163025E+02
 0.16259913265E+02 0.15674525167E+02 0.15115299265E+02 0.14584814935E+02 0.14086090535E+02
 0.13624505677E+02 0.13208877292E+02 0.12851315315E+02 0.12565854421E+02 0.12366227044E+02
 0.12263379861E+02 0.12263379861E+02 0.12366227044E+02 0.12565854421E+02 0.12851315315E+02
 0.13208877292E+02 0.13624505677E+02 0.14086090535E+02 0.14584814935E+02 0.15115299265E+02
 0.15674525167E+02 0.16259913265E+02 0.16867163025E+02 0.17488479230E+02 0.18111614083E+02
 0.18719832020E+02 0.19292586208E+02 0.19806514510E+02 0.20221118942E+02 0.20454366495E+02
 0.20410714686E+02 0.19996009799E+02 0.19132310672E+02 0.17779856711E+02 0.15956775378E+02
 0.13749887642E+02 0.11327396509E+02 0.89359127588E+01 0.68549700889E+01 0.53310123680E+01
 0.45304000782E+01 0.45304000782E+01 0.53310123680E+01 0.68549700889E+01 0.89359127588E+01
 0.14188138286E+02 0.15979817847E+02 0.17524756016E+02 0.18724563549E+02 0.19539451463E+02
 0.19982876359E+02 0.20106191171E+02 0.19981175181E+02 0.19686556610E+02 0.19292586208E+02
 0.18834378046E+02 0.18333050221E+02 0.17807117802E+02 0.17271613769E+02 0.16737494109E+02
 0.16211641165E+02 0.15697698227E+02 0.15197721105E+02 0.14714321200E+02 0.14252729835E+02
 0.13822147078E+02 0.13435896756E+02 0.13108814962E+02 0.12858818781E+02 0.12701287424E+02
 0.12647429572E+02 0.12701287424E+02 0.12858818781E+02 0.13108814962E+02 0.13435896756E+02
 0.13822147078E+02 0.14252729835E+02 0.14714321200E+02 0.15197721105E+02 0.15697698227E+02
 0.16211641165E+02 0.16737494109E+02 0.17271613769E+02 0.17807117802E+02 0.18333050221E+02
 0.18834378046E+02 0.19292586208E+02 0.19686556610E+02 0.19981175181E+02 0.20106191171E+02
 0.19982876359E+02 0.19539451463E+02 0.18724563549E+02 0.17524756016E+02 0.15979817847E+02
 0.14188138286E+02 0.12303749952E+02 0.10524603529E+02 0.90629670741E+01 0.81036242900E+01
 0.77697095225E+01 0.81036242900E+01 0.90629670741E+01 0.10524603529E+02 0.12303749952E+02
 0.15891438167E+02 0.17149922297E+02 0.18173739121E+02 0.18911777747E+02 0.19357859118E+02
 0.19540828100E+02 0.19511592588E+02 0.19332227235E+02 0.19059088895E+02 0.18719832020E+02
 0.18333050221E+02 0.17914921128E+02 0.17478364789E+02 0.17032521079E+02 0.16582761120E+02
 0.16131446399E+02 0.15679481544E+02 0.15228432495E+02 0.14782714438E+02 0.14351216731E+02
 0.13945389737E+02 0.13582694808E+02 0.13283672371E+02 0.13069564229E+02 0.12957662056E+02
 0.12957662056E+02 0.13069564229E+02 0.13283672371E+02 0.13582694808E+02 0.13945389737E+02
 0.14351216731E+02 0.14782714438E+02 0.15228432495E+02 0.15679481544E+02 0.16131446399E+02
 0.16582761120E+02 0.17032521079E+02 0.17478364789E+02 0.17914921128E+02 0.18333050221E+02
 0.18719832020E+02 0.19059088895E+02 0.19332227235E+02 0.19511592588E+02 0.19540828100E+02
 0.19357859118E+02 0.18911777747E+02 0.18173739121E+02 0.17149922297E+02 0.15891438167E+02
 0.14496032833E+02 0.13099284731E+02 0.11857769716E+02 0.10925248098E+02 0.10424916829E+02
 0.10424916829E+02 0.10925248098E+02 0.11857769716E+02 0.13099284731E+02 0.14496032833E+02
 0.16635821328E+02 0.17479561122E+02 0.18125628844E+02 0.18555190566E+02 0.18779571579E+02
 0.18832207149E+02 0.18759584480E+02 0.18602587531E+02 0.18381315273E+02 0.18111614083E+02
 0.17807117802E+02 0.17478364789E+02 0.17132312921E+02 0.16772370458E+02 0.16399109094E+02
 0.16011732610E+02 0.15610155541E+02 0.15197283620E+02 0.14779467188E+02 0.14366812340E+02
 0.13976442387E+02 0.13632419608E+02 0.13361531438E+02 0.13187746739E+02 0.13127820736E+02
 0.13187746739E+02 0.13361531438E+02 0.13632419608E+02 0.13976442387E+02 0.14366812340E+02
 0.14779467188E+02 0.15197283620E+02 0.15610155541E+02 0.16011732610E+02 0.16399109094E+02
 0.16772370458E+02 0.17132312921E+02 0.17478364789E+02 0.17807117802E+02 0.18111614083E+02
 0.18381315273E+02 0.18602587531E+02 0.18759584480E+02 0.18832207149E+02 0.18779571579E+02
 0.18555190566E+02 0.18125628844E+02 0.17479561122E+02 0.16635821328E+02 0.15648503058E+02
 0.14605149695E+02 0.13616809320E+02 0.12801344849E+02 0.12263481867E+02 0.12075571037E+02
 0.12263481867E+02 0.12801344849E+02 0.13616809320E+02 0.14605149695E+02 0.15648503058E+02
 0.16647752578E+02 0.17198561575E+02 0.17599694638E+02 0.17850638985E+02 0.17971805140E+02
 0.17993593739E+02 0.17943088081E+02 0.17833738930E+02 0.17678534199E+02 0.17488479230E+02
 0.17271613769E+02 0.17032521079E+02 0.16772370458E+02 0.16489598653E+02 0.16181301882E+02
 0.15845254191E+02 0.15482234465E+02 0.15094794950E+02 0.14689928563E+02 0.14284050607E+02
 0.13903293965E+02 0.13578758878E+02 0.13341403466E+02 0.13215859874E+02 0.13215859874E+02
 0.13341403466E+02 0.13578758878E+02 0.13903293965E+02 0.14284050607E+02 0.14689928563E+02
 0.15094794950E+02 0.15482234465E+02 0.15845254191E+02 0.16181301882E+02 0.16489598653E+02
 0.16772370458E+02 0.17032521079E+02 0.17271613769E+02 0.17488479230E+02 0.17678534199E+02
 0.17833738930E+02 0.17943088081E+02 0.17993593739E+02 0.17971805140E+02 0.17850638985E+02
 0.17599694638E+02 0.17198561575E+02 0.16647752578E+02 0.15972397298E+02 0.15223463918E+02
 0.14473565384E+02 0.13807214432E+02 0.13306983106E+02 0.13038650442E+02 0.13038650442E+02
 0.13306983106E+02 0.13807214432E+02 0.14473565384E+02 0.15223463918E+02 0.15972397298E+02
 0.16153416633E+02 0.16520956240E+02 0.16787349019E+02 0.16962765855E+02 0.17065805602E+02
 0.17108321756E+02 0.17100517030E+02 0.17052569893E+02 0.16972921839E+02 0.16867163025E+02
 0.16737494109E+02 0.16582761120E+02 0.16399109094E+02 0.16181301882E+02 0.15924659345E+02
 0.15627376535E+02 0.15287582502E+02 0.14908317350E+02 0.14503449049E+02 0.14098979265E+02
 0.13729150732E+02 0.13430678218E+02 0.13236425093E+02 0.13168979188E+02 0.13236425093E+02
 0.13430678218E+02 0.13729150732E+02 0.14098979265E+02 0.14503449049E+02 0.14908317350E+02
 0.15287582502E+02 0.15627376535E+02 0.15924659345E+02 0.16181301882E+02 0.16399109094E+02
 0.16582761120E+02 0.16737494109E+02 0.16867163025E+02 0.16972921839E+02 0.17052569893E+02
 0.17100517030E+02 0.17108321756E+02 0.17065805602E+02 0.16962765855E+02 0.16787349019E+02
 0.16520956240E+02 0.16153416633E+02 0.15691978481E+02 0.15162886837E+02 0.14610021777E+02
 0.14089689086E+02 0.13662047868E+02 0.13380662650E+02 0.13282473364E+02 0.13380662650E+02
 0.13662047868E+02 0.14089689086E+02 0.14610021777E+02 0.15162886837E+02 0.15691978481E+02
 0.15352437620E+02 0.15627376535E+02 0.15845254191E+02 0.16011732610E+02 0.16131446399E+02
 0.16211641165E+02 0.16259913265E+02 0.16282367891E+02 0.16282367891E+02 0.16259913265E+02
 0.16211641165E+02 0.16131446399E+02 0.16011732610E+02 0.15845254191E+02 0.15627376535E+02
 0.15352437620E+02 0.15018315036E+02 0.14634543387E+02 0.14224841011E+02 0.13824070599E+02
 0.13473181259E+02 0.13212106815E+02 0.13072773706E+02 0.13072773706E+02 0.13212106815E+02
 0.13473181259E+02 0.13824070599E+02 0.14224841011E+02 0.14634543387E+02 0.15018315036E+02
 0.15352437620E+02 0.15627376535E+02 0.15845254191E+02 0.16011732610E+02 0.16131446399E+02
 0.16211641165E+02 0.16259913265E+02 0.16282367891E+02 0.16282367891E+02 0.16259913265E+02
 0.16211641165E+02 0.16131446399E+02 0.16011732610E+02 0.15845254191E+02 0.15627376535E+02
 0.15352437620E+02 0.15018315036E+02 0.14634543387E+02 0.14224841011E+02 0.13824070599E+02
 0.13473181259E+02 0.13212106815E+02 0.13072773706E+02 0.13072773706E+02 0.13212106815E+02
 0.13473181259E+02 0.13824070599E+02 0.14224841011E+02 0.14634543387E+02 0.15018315036E+02
 0.14409222519E+02 0.14655865518E+02 0.14868317936E+02 0.15048572372E+02 0.15201385180E+02
 0.15332151506E+02 0.15445014865E+02 0.15541493866E+02 0.15619751393E+02 0.15674525167E+02
 0.15697698227E+02 0.15679481544E+02 0.15610155541E+02 0.15482234465E+02 0.15287582502E+02
 0.15018315036E+02 0.14678110303E+02 0.14286129251E+02 0.13875246478E+02 0.13487823177E+02
 0.13169147231E+02 0.12959331485E+02 0.12886098342E+02 0.12959331485E+02 0.13169147231E+02
 0.13487823177E+02 0.13875246478E+02 0.14286129251E+02 0.14678110303E+02 0.15018315036E+02
 0.15287582502E+02 0.15482234465E+02 0.15610155541E+02 0.15679481544E+02 0.15697698227E+02
 0.15674525167E+02 0.15619751393E+02 0.15541493866E+02 0.15445014865E+02 0.15332151506E+02
 0.15201385180E+02 0.15048572372E+02 0.14868317936E+02 0.14655865518E+02 0.14409222519E+02
 0.14131089176E+02 0.13826212949E+02 0.13505695308E+02 0.13188366312E+02 0.12900005451E+02
 0.12668212378E+02 0.12517738741E+02 0.12465570387E+02 0.12517738741E+02 0.12668212378E+02
 0.12900005451E+02 0.13188366312E+02 0.13505695308E+02 0.13826212949E+02 0.14131089176E+02
 0.13429191169E+02 0.13671773049E+02 0.13896407633E+02 0.14105919030E+02 0.14303973678E+02
 0.14493226151E+02 0.14673854238E+02 0.14842698308E+02 0.14993081681E+02 0.15115299265E+02
 0.15197721105E+02 0.15228432495E+02 0.15197283620E+02 0.15094794950E+02 0.14908317350E+02
 0.14634543387E+02 0.14286129251E+02 0.13891246684E+02 0.13490628468E+02 0.13131799126E+02
 0.12861127012E+02 0.12715569240E+02 0.12715569240E+02 0.12861127012E+02 0.13131799126E+02
 0.13490628468E+02 0.13891246684E+02 0.14286129251E+02 0.14634543387E+02 0.14908317350E+02
 0.15094794950E+02 0.15197283620E+02 0.15228432495E+02 0.15197721105E+02 0.15115299265E+02
 0.14993081681E+02 0.14842698308E+02 0.14673854238E+02 0.14493226151E+02 0.14303973678E+02
 0.14105919030E+02 0.13896407633E+02 0.13671773049E+02 0.13429191169E+02 0.13168563741E+02
 0.12893988501E+02 0.12614411813E+02 0.12343233183E+02 0.12093554102E+02 0.11884974007E+02
 0.11734114023E+02 0.11654850957E+02 0.11654850957E+02 0.11734114023E+02 0.11884974007E+02
 0.12093554102E+02 0.12343233183E+02 0.12614411813E+02 0.12893988501E+02 0.13168563741E+02
 0.12455906401E+02 0.12710223664E+02 0.12961069545E+02 0.13210866109E+02 0.13461277405E+02
 0.13711697357E+02 0.13958252749E+02 0.14193471673E+02 0.14406643492E+02 0.14584814935E+02
 0.14714321200E+02 0.14782714438E+02 0.14779467188E+02 0.14689928563E+02 0.14503449049E+02
 0.14224841011E+02 0.13875246478E+02 0.13490628468E+02 0.13117280223E+02 0.12804624005E+02
 0.12596647574E+02 0.12523709211E+02 0.12596647574E+02 0.12804624005E+02 0.13117280223E+02
 0.13490628468E+02 0.13875246478E+02 0.14224841011E+02 0.14503449049E+02 0.14689928563E+02
 0.14779467188E+02 0.14782714438E+02 0.14714321200E+02 0.14584814935E+02 0.14406643492E+02
 0.14193471673E+02 0.13958252749E+02 0.13711697357E+02 0.13461277405E+02 0.13210866109E+02
 0.12961069545E+02 0.12710223664E+02 0.12455906401E+02 0.12196674061E+02 0.11933629688E+02
 0.11671427227E+02 0.11418436130E+02 0.11186008682E+02 0.10987029225E+02 0.10834091042E+02
 0.10737689573E+02 0.10704750564E+02 0.10737689573E+02 0.10834091042E+02 0.10987029225E+02
 0.11186008682E+02 0.11418436130E+02 0.11671427227E+02 0.11933629688E+02 0.12196674061E+02
 0.11522240289E+02 0.11800397019E+02 0.12087002703E+02 0.12383178284E+02 0.12688063424E+02
 0.12997696163E+02 0.13304497017E+02 0.13597445205E+02 0.13862918595E+02 0.14086090535E+02
 0.14252729835E+02 0.14351216731E+02 0.14366812340E+02 0.14284050607E+02 0.14098979265E+02
 0.13824070599E+02 0.13487823177E+02 0.13131799126E+02 0.12804624005E+02 0.12554051382E+02
 0.12418185192E+02 0.12418185192E+02 0.12554051382E+02 0.12804624005E+02 0.13131799126E+02
 0.13487823177E+02 0.13824070599E+02 0.14098979265E+02 0.14284050607E+02 0.14366812340E+02
 0.14351216731E+02 0.14252729835E+02 0.14086090535E+02 0.13862918595E+02 0.13597445205E+02
 0.13304497017E+02 0.12997696163E+02 0.12688063424E+02 0.12383178284E+02 0.12087002703E+02
 0.11800397019E+02 0.11522240289E+02 0.11250931355E+02 0.10985933255E+02 0.10728984852E+02
 0.10484674973E+02 0.10260247418E+02 0.10064721484E+02 0.99075878648E+01 0.97974088877E+01
 0.97406060980E+01 0.97406060980E+01 0.97974088877E+01 0.99075878648E+01 0.10064721484E+02
 0.10260247418E+02 0.10484674973E+02 0.10728984852E+02 0.10985933255E+02 0.11250931355E+02
 0.10653686684E+02 0.10963482981E+02 0.11290751365E+02 0.11634803696E+02 0.11992143529E+02
 0.12355755591E+02 0.12715048670E+02 0.13056477097E+02 0.13364755140E+02 0.13624505677E+02
 0.13822147078E+02 0.13945389737E+02 0.13976442387E+02 0.13903293965E+02 0.13729150732E+02
 0.13473181259E+02 0.13169147231E+02 0.12861127012E+02 0.12596647574E+02 0.12418185192E+02
 0.12355192673E+02 0.12418185192E+02 0.12596647574E+02 0.12861127012E+02 0.13169147231E+02
 0.13473181259E+02 0.13729150732E+02 0.13903293965E+02 0.13976442387E+02 0.13945389737E+02
 0.13822147078E+02 0.13624505677E+02 0.13364755140E+02 0.13056477097E+02 0.12715048670E+02
 0.12355755591E+02 0.11992143529E+02 0.11634803696E+02 0.11290751365E+02 0.10963482981E+02
 0.10653686684E+02 0.10360447713E+02 0.10082668576E+02 0.98203590545E+01 0.95754800394E+01
 0.93521537250E+01 0.91562421142E+01 0.89944734875E+01 0.88733918810E+01 0.87983890834E+01
 0.87729821356E+01 0.87983890834E+01 0.88733918810E+01 0.89944734875E+01 0.91562421142E+01
 0.93521537250E+01 0.95754800394E+01 0.98203590545E+01 0.10082668576E+02 0.10360447713E+02
 0.98670164755E+01 0.10212102255E+02 0.10580913146E+02 0.10970826502E+02 0.11375958020E+02
 0.11786844303E+02 0.12190785437E+02 0.12572811343E+02 0.12917132643E+02 0.13208877292E+02
 0.13435896756E+02 0.13582694808E+02 0.13632419608E+02 0.13578758878E+02 0.13430678218E+02
 0.13212106815E+02 0.12959331485E+02 0.12715569240E+02 0.12523709211E+02 0.12418185192E+02
 0.12418185192E+02 0.12523709211E+02 0.12715569240E+02 0.12959331485E+02 0.13212106815E+02
 0.13430678218E+02 0.13578758878E+02 0.13632419608E+02 0.13582694808E+02 0.13435896756E+02
 0.13208877292E+02 0.12917132643E+02 0.12572811343E+02 0.12190785437E+02 0.11786844303E+02
 0.11375958020E+02 0.10970826502E+02 0.10580913146E+02 0.10212102255E+02 0.98670164755E+01
 0.95458997111E+01 0.92478437477E+01 0.89720527413E+01 0.87188343929E+01 0.84900941685E+01
 0.82892671584E+01 0.81207936070E+01 0.79893598078E+01 0.78991427638E+01 0.78532233386E+01
 0.78532233386E+01 0.78991427638E+01 0.79893598078E+01 0.81207936070E+01 0.82892671584E+01
 0.84900941685E+01 0.87188343929E+01 0.89720527413E+01 0.92478437477E+01 0.95458997111E+01
 0.91705655573E+01 0.95512814799E+01 0.99597190924E+01 0.10391511966E+02 0.10838891785E+02
 0.11290713485E+02 0.11733106664E+02 0.12150662084E+02 0.12527973331E+02 0.12851315315E+02
 0.13108814962E+02 0.13283672371E+02 0.13361531438E+02 0.13341403466E+02 0.13236425093E+02
 0.13072773706E+02 0.12886098342E+02 0.12715569240E+02 0.12596647574E+02 0.12554051382E+02
 0.12596647574E+02 0.12715569240E+02 0.12886098342E+02 0.13072773706E+02 0.13236425093E+02
 0.13341403466E+02 0.13361531438E+02 0.13283672371E+02 0.13108814962E+02 0.12851315315E+02
 0.12527973331E+02 0.12150662084E+02 0.11733106664E+02 0.11290713485E+02 0.10838891785E+02
 0.10391511966E+02 0.99597190924E+01 0.95512814799E+01 0.91705655573E+01 0.88191037637E+01
 0.84965922049E+01 0.82020566069E+01 0.79348928305E+01 0.76955401771E+01 0.74856717981E+01
 0.73079440326E+01 0.71654736248E+01 0.70612575994E+01 0.69977046164E+01 0.69763462672E+01
 0.69977046164E+01 0.70612575994E+01 0.71654736248E+01 0.73079440326E+01 0.74856717981E+01
 0.76955401771E+01 0.79348928305E+01 0.82020566069E+01 0.84965922049E+01 0.88191037637E+01
 0.85659212986E+01 0.89805744539E+01 0.94254381201E+01 0.98948013243E+01 0.10379634284E+02
 0.10867878617E+02 0.11345298819E+02 0.11796762247E+02 0.12207746072E+02 0.12565854421E+02
 0.12858818781E+02 0.13069564229E+02 0.13187746739E+02 0.13215859874E+02 0.13168979188E+02
 0.13072773706E+02 0.12959331485E+02 0.12861127012E+02 0.12804624005E+02 0.12804624005E+02
 0.12861127012E+02 0.12959331485E+02 0.13072773706E+02 0.13168979188E+02 0.13215859874E+02
 0.13187746739E+02 0.13069564229E+02 0.12858818781E+02 0.12565854421E+02 0.12207746072E+02
 0.11796762247E+02 0.11345298819E+02 0.10867878617E+02 0.10379634284E+02 0.98948013243E+01
 0.94254381201E+01 0.89805744539E+01 0.85659212986E+01 0.81841624415E+01 0.78357207624E+01
 0.75197849019E+01 0.72353292348E+01 0.69818823165E+01 0.67598944415E+01 0.65706935700E+01
 0.64161486195E+01 0.62982276581E+01 0.62186213143E+01 0.61785177732E+01 0.61785177732E+01
 0.62186213143E+01 0.62982276581E+01 0.64161486195E+01 0.65706935700E+01 0.67598944415E+01
 0.69818823165E+01 0.72353292348E+01 0.75197849019E+01 0.78357207624E+01 0.81841624415E+01
 0.80504033501E+01 0.84966521843E+01 0.89748956216E+01 0.94785577135E+01 0.99979458280E+01
 0.10520715439E+02 0.11032815047E+02 0.11519754108E+02 0.11967989114E+02 0.12366227044E+02
 0.12701287424E+02 0.12957662056E+02 0.13127820736E+02 0.13215859874E+02 0.13236425093E+02
 0.13212106815E+02 0.13169147231E+02 0.13131799126E+02 0.13117280223E+02 0.13131799126E+02
 0.13169147231E+02 0.13212106815E+02 0.13236425093E+02 0.13215859874E+02 0.13127820736E+02
 0.12957662056E+02 0.12701287424E+02 0.12366227044E+02 0.11967989114E+02 0.11519754108E+02
 0.11032815047E+02 0.10520715439E+02 0.99979458280E+01 0.94785577135E+01 0.89748956216E+01
 0.84966521843E+01 0.80504033501E+01 0.76396853963E+01 0.72655558108E+01 0.69274702589E+01
 0.66242408743E+01 0.63548396139E+01 0.61188783707E+01 0.59167149779E+01 0.57492593292E+01
 0.56176373737E+01 0.55228797926E+01 0.54657395516E+01 0.54466472944E+01 0.54657395516E+01
 0.55228797926E+01 0.56176373737E+01 0.57492593292E+01 0.59167149779E+01 0.61188783707E+01
 0.63548396139E+01 0.66242408743E+01 0.69274702589E+01 0.72655558108E+01 0.76396853963E+01
 0.76196239703E+01 0.80956646967E+01 0.86054650199E+01 0.91420204071E+01 0.96954324852E+01
 0.10253462573E+02 0.10802484034E+02 0.11328667515E+02 0.11819203001E+02 0.12263379861E+02
 0.12647429572E+02 0.12957662056E+02 0.13187746739E+02 0.13341403466E+02 0.13430678218E+02
 0.13473181259E+02 0.13487823177E+02 0.13490628468E+02 0.13490628468E+02 0.13487823177E+02
 0.13473181259E+02 0.13430678218E+02 0.13341403466E+02 0.13187746739E+02 0.12957662056E+02
 0.12647429572E+02 0.12263379861E+02 0.11819203001E+02 0.11328667515E+02 0.10802484034E+02
 0.10253462573E+02 0.96954324852E+01 0.91420204071E+01 0.86054650199E+01 0.80956646967E+01
 0.76196239703E+01 0.71813867649E+01 0.67824368747E+01 0.64224394276E+01 0.61001224953E+01
 0.58140789621E+01 0.55633133606E+01 0.53474545471E+01 0.51666704804E+01 0.50214124469E+01
 0.49121466184E+01 0.48391913080E+01 0.48026933334E+01 0.48026933334E+01 0.48391913080E+01
 0.49121466184E+01 0.50214124469E+01 0.51666704804E+01 0.53474545471E+01 0.55633133606E+01
 0.58140789621E+01 0.61001224953E+01 0.64224394276E+01 0.67824368747E+01 0.71813867649E+01
 0.72695215905E+01 0.77748529362E+01 0.83161309368E+01 0.88862234681E+01 0.94752752675E+01
 0.10071283200E+02 0.10660999692E+02 0.11230999687E+02 0.11768729236E+02 0.12263379861E+02
 0.12701287424E+02 0.13069564229E+02 0.13361531438E+02 0.13578758878E+02 0.13729150732E+02
 0.13824070599E+02 0.13875246478E+02 0.13891246684E+02 0.13875246478E+02 0.13824070599E+02
 0.13729150732E+02 0.13578758878E+02 0.13361531438E+02 0.13069564229E+02 0.12701287424E+02
 0.12263379861E+02 0.11768729236E+02 0.11230999687E+02 0.10660999692E+02 0.10071283200E+02
 0.94752752675E+01 0.88862234681E+01 0.83161309368E+01 0.77748529362E+01 0.72695215905E+01
 0.68044003196E+01 0.63811749929E+01 0.59995890185E+01 0.56582531157E+01 0.53554300565E+01
 0.50896207219E+01 0.48598542737E+01 0.46656880408E+01 0.45070151406E+01 0.43838241039E+01
 0.42960373647E+01 0.42434860623E+01 0.42259939022E+01 0.42434860623E+01 0.42960373647E+01
 0.43838241039E+01 0.45070151406E+01 0.46656880408E+01 0.48598542737E+01 0.50896207219E+01
 0.53554300565E+01 0.56582531157E+01 0.59995890185E+01 0.63811749929E+01 0.68044003196E+01
 0.69975099444E+01 0.75331804668E+01 0.81075488628E+01 0.87134787724E+01 0.93411921146E+01
 0.99788229733E+01 0.10613242952E+02 0.11230999687E+02 0.11819203001E+02 0.12366227044E+02