unknown system                          
   1.00000000000000     
     0.000000    2.734257    2.734257
     2.734257    0.000000    2.734257
     2.734257    2.734257    0.000000
   Si
     2
Direct
  0.000000  0.000000  0.000000
  0.250000  0.250000  0.250000
 
   60   60   60
 0.52312212015E+06 0.19020402213E+05 0.38420867876E+04 0.22588630667E+04 0.12229031592E+04
 0.60546467280E+03 0.28688601554E+03 0.13317712903E+03 0.61291121051E+02 0.28131538113E+02
 0.12928389519E+02 0.59726579939E+01 0.27791854731E+01 0.13001359882E+01 0.61164003838E+00
 0.28905786954E+00 0.13726982508E+00 0.65558072681E-01 0.31558229529E-01 0.15444551135E-01
 0.78276422310E-02 0.42825949023E-02 0.27393755913E-02 0.21341364751E-02 0.20471855170E-02
 0.21447031394E-02 0.23913430533E-02 0.26007983678E-02 0.28343749597E-02 0.29391558719E-02
 0.30185680790E-02 0.29392318915E-02 0.28341809297E-02 0.26002859462E-02 0.23923611013E-02
 0.21466044060E-02 0.20513891189E-02 0.21378903027E-02 0.27435222568E-02 0.42840408797E-02
 0.78241235666E-02 0.15437801374E-01 0.31557670159E-01 0.65565542045E-01 0.13726626404E+00
 0.28905463868E+00 0.61164578592E+00 0.13001321581E+01 0.27791850775E+01 0.59726594933E+01
 0.12928388922E+02 0.28131539557E+02 0.61291119642E+02 0.13317712919E+03 0.28688601453E+03
 0.60546467318E+03 0.12229031589E+04 0.22588630665E+04 0.38420867879E+04 0.19020402213E+05
 0.19020402213E+05 0.47654733376E+04 0.27222104863E+04 0.15798299356E+04 0.81792411286E+03
 0.39760133264E+03 0.18733406070E+03 0.86972247287E+02 0.40128259220E+02 0.18488186974E+02
 0.85419177237E+01 0.39710878907E+01 0.18564174274E+01 0.87319824551E+00 0.41193213289E+00
 0.19576324098E+00 0.93162333469E-01 0.44972492811E-01 0.21810471442E-01 0.11120931247E-01
 0.59899094097E-02 0.39078029169E-02 0.30327671659E-02 0.30023921181E-02 0.31996888982E-02
 0.36481751962E-02 0.40688364699E-02 0.44973689269E-02 0.47985118169E-02 0.49650065907E-02
 0.49737461337E-02 0.47897402708E-02 0.45070643072E-02 0.40588946739E-02 0.36540865432E-02
 0.31874512465E-02 0.30046647493E-02 0.30215768078E-02 0.39130734896E-02 0.59870955063E-02
 0.11135851651E-01 0.21804068131E-01 0.44970817528E-01 0.93160695926E-01 0.19577147848E+00
 0.41192228513E+00 0.87320368276E+00 0.18564210524E+01 0.39710789452E+01 0.85419252217E+01
 0.18488135194E+02 0.40128296914E+02 0.86972146451E+02 0.18733415829E+03 0.39760113742E+03
 0.81792405739E+03 0.15798299157E+04 0.27222102295E+04 0.47654736438E+04 0.19020402430E+05
 0.38420867876E+04 0.27222104863E+04 0.17247168807E+04 0.95719547055E+03 0.48855386975E+03
 0.23802650639E+03 0.11310441120E+03 0.53057477147E+02 0.24737530342E+02 0.11520378824E+02
 0.53828999672E+01 0.25277880213E+01 0.11921682375E+01 0.56443993060E+00 0.26851873792E+00
 0.12818457474E+00 0.61792616366E-01 0.30067234885E-01 0.15250268753E-01 0.82773394260E-02
 0.53467230816E-02 0.42413320815E-02 0.42349923145E-02 0.46611064479E-02 0.54271326393E-02
 0.62138916402E-02 0.70276592845E-02 0.76453552657E-02 0.80919638894E-02 0.82134104675E-02
 0.80918936024E-02 0.76444248854E-02 0.70287612606E-02 0.62173125068E-02 0.54320518607E-02
 0.46672361037E-02 0.42411182685E-02 0.42396807433E-02 0.53454062791E-02 0.82660735626E-02
 0.15251760296E-01 0.30072848167E-01 0.61789624609E-01 0.12817816115E+00 0.26852872955E+00
 0.56443227986E+00 0.11921678735E+01 0.25278033688E+01 0.53828948812E+01 0.11520339506E+02
 0.24737462012E+02 0.53057469629E+02 0.11310431698E+03 0.23802655173E+03 0.48855375761E+03
 0.95719550452E+03 0.17247169133E+04 0.27222104579E+04 0.38420867828E+04 0.47654736441E+04
 0.22588630667E+04 0.15798299356E+04 0.95719547055E+03 0.52425416045E+03 0.26938399574E+03
 0.13317728866E+03 0.64356988500E+02 0.30692250066E+02 0.14537245045E+02 0.68784727231E+01
 0.32622792627E+01 0.15507854384E+01 0.73977512026E+00 0.35351954327E+00 0.16982706784E+00
 0.81938042184E-01 0.40140189223E-01 0.20257222649E-01 0.11097460465E-01 0.70944687526E-02
 0.57895666674E-02 0.58282811239E-02 0.66772672452E-02 0.78868115799E-02 0.93172497759E-02
 0.10715579603E-01 0.11969878872E-01 0.12882792555E-01 0.13388892554E-01 0.13379382500E-01
 0.12893868796E-01 0.11958370770E-01 0.10721895595E-01 0.92998345774E-02 0.78912622653E-02
 0.66564739718E-02 0.58427356889E-02 0.57870331107E-02 0.71092341371E-02 0.11085852905E-01
 0.20260374075E-01 0.40140383047E-01 0.81954793218E-01 0.16980910747E+00 0.35353681502E+00
 0.73976624128E+00 0.15507872612E+01 0.32622657403E+01 0.68784803093E+01 0.14537302539E+02
 0.30692263349E+02 0.64357033121E+02 0.13317722735E+03 0.26938395321E+03 0.52425400381E+03
 0.95719541644E+03 0.15798298927E+04 0.22588632533E+04 0.27222104577E+04 0.27222102293E+04
 0.12229031592E+04 0.81792411286E+03 0.48855386975E+03 0.26938399574E+03 0.14077653530E+03
 0.71039667422E+02 0.35047654264E+02 0.17048109399E+02 0.82352297586E+01 0.39710901050E+01
 0.19137789005E+01 0.92347202534E+00 0.44538159709E+00 0.21587301747E+00 0.10466549859E+00
 0.51740021065E-01 0.26032890394E-01 0.14438245238E-01 0.91202676081E-02 0.77471808642E-02
 0.77917928708E-02 0.93004230239E-02 0.11088132769E-01 0.13626333687E-01 0.15876551191E-01
 0.18348282020E-01 0.20026541508E-01 0.21431661785E-01 0.21673207048E-01 0.21429316386E-01
 0.20029129723E-01 0.18352178320E-01 0.15887270955E-01 0.13634367773E-01 0.11095300132E-01
 0.93076604426E-02 0.77682456009E-02 0.77356102802E-02 0.91342350122E-02 0.14456340042E-01
 0.26019201911E-01 0.51728707970E-01 0.10466925354E+00 0.21586392861E+00 0.44537529658E+00
 0.92348939615E+00 0.19137683519E+01 0.39710826044E+01 0.82351724136E+01 0.17048123344E+02
 0.35047637510E+02 0.71039734859E+02 0.14077668825E+03 0.26938399133E+03 0.48855411713E+03
 0.81792412499E+03 0.12229029743E+04 0.15798298924E+04 0.17247169134E+04 0.15798299153E+04
 0.60546467280E+03 0.39760133264E+03 0.23802650639E+03 0.13317728866E+03 0.71039667422E+02
 0.36655274893E+02 0.18487991216E+02 0.91953611093E+01 0.45386485228E+01 0.22316006888E+01
 0.10941331353E+01 0.53533187680E+00 0.26234398408E+00 0.12861393893E+00 0.63969859354E-01
 0.32499745668E-01 0.18021152287E-01 0.11625495745E-01 0.98108935255E-02 0.10227072167E-01
 0.12398344286E-01 0.15399093500E-01 0.19191103750E-01 0.23194927632E-01 0.27189627611E-01
 0.30648048249E-01 0.33258742352E-01 0.34637493977E-01 0.34639713260E-01 0.33258214148E-01
 0.30639305211E-01 0.27181148304E-01 0.23176652089E-01 0.19186745808E-01 0.15405146569E-01
 0.12402698473E-01 0.10256975772E-01 0.98088597961E-02 0.11600487968E-01 0.18020569571E-01
 0.32498257138E-01 0.63958452052E-01 0.12862008930E+00 0.26235104880E+00 0.53530756687E+00
 0.10941528149E+01 0.22315761173E+01 0.45387134038E+01 0.91953279476E+01 0.18488108431E+02
 0.36655242787E+02 0.71039640120E+02 0.13317730849E+03 0.23802627011E+03 0.39760119657E+03
 0.60546466600E+03 0.81792412463E+03 0.95719541606E+03 0.95719550372E+03 0.81792405729E+03
 0.28688601554E+03 0.18733406070E+03 0.11310441120E+03 0.64356988500E+02 0.35047654264E+02
 0.18487991216E+02 0.95424788396E+01 0.48568252705E+01 0.24499163035E+01 0.12271882367E+01
 0.61184378864E+00 0.30435305714E+00 0.15140679705E+00 0.76001139950E-01 0.39071769943E-01
 0.21737826408E-01 0.14247748035E-01 0.12102477471E-01 0.13027935245E-01 0.16111947591E-01
 0.20671973398E-01 0.26336344853E-01 0.32668693796E-01 0.39285759745E-01 0.45414637825E-01
 0.50502477114E-01 0.53817182745E-01 0.55003646225E-01 0.53817550578E-01 0.50508155350E-01
 0.45433439919E-01 0.39294391097E-01 0.32682549318E-01 0.26325059863E-01 0.20623969129E-01
 0.16117613784E-01 0.13041543786E-01 0.12118352550E-01 0.14205465349E-01 0.21748019965E-01
 0.39085722213E-01 0.76018243912E-01 0.15139672530E+00 0.30439778272E+00 0.61180911581E+00
 0.12272275919E+01 0.24498163101E+01 0.48568858752E+01 0.95423728722E+01 0.18488048925E+02
 0.35047692974E+02 0.64356931669E+02 0.11310461846E+03 0.18733404341E+03 0.28688588477E+03
 0.39760119543E+03 0.48855411661E+03 0.52425400208E+03 0.48855375743E+03 0.39760113589E+03
 0.13317712903E+03 0.86972247287E+02 0.53057477147E+02 0.30692250066E+02 0.17048109399E+02
 0.91953611093E+01 0.48568252705E+01 0.25278002321E+01 0.13004206496E+01 0.66341727092E+00
 0.33654118511E+00 0.17031869976E+00 0.86720556598E-01 0.45136807219E-01 0.25373441860E-01
 0.16755402034E-01 0.14500754896E-01 0.16054192411E-01 0.20324328906E-01 0.26648313060E-01
 0.34945560749E-01 0.44588513687E-01 0.55055448087E-01 0.65399216007E-01 0.74536338117E-01
 0.81401089692E-01 0.85079982364E-01 0.85083223358E-01 0.81392832872E-01 0.74533608299E-01
 0.65375954727E-01 0.55075043321E-01 0.44615459123E-01 0.34979256841E-01 0.26684174419E-01
 0.20294188978E-01 0.16004419152E-01 0.14527367766E-01 0.16763398509E-01 0.25377135201E-01
 0.45158441276E-01 0.86741691087E-01 0.17029491366E+00 0.33658122866E+00 0.66338573696E+00
 0.13005042409E+01 0.25277353973E+01 0.48569367655E+01 0.91953215613E+01 0.17048092451E+02
 0.30692397428E+02 0.53057221154E+02 0.86972233941E+02 0.13317728325E+03 0.18733404286E+03
 0.23802626809E+03 0.26938398950E+03 0.26938395095E+03 0.23802654992E+03 0.18733415719E+03
 0.61291121051E+02 0.40128259220E+02 0.24737530342E+02 0.14537245045E+02 0.82352297586E+01
 0.45386485228E+01 0.24499163035E+01 0.13004206496E+01 0.68174963107E+00 0.35396880141E+00
 0.18293862093E+00 0.94721798305E-01 0.50165797901E-01 0.28484987960E-01 0.19093897838E-01
 0.16755402041E-01 0.19076326574E-01 0.24643619327E-01 0.33291382494E-01 0.44814974390E-01
 0.58934435396E-01 0.74654954574E-01 0.91066249323E-01 0.10656312182E+00 0.11941964969E+00
 0.12794795448E+00 0.13095188790E+00 0.12794072827E+00 0.11941107973E+00 0.10654266546E+00
 0.91028498113E-01 0.74600753637E-01 0.58843682160E-01 0.44856340747E-01 0.33347446195E-01
 0.24651885390E-01 0.18992017770E-01 0.16801577266E-01 0.19120171851E-01 0.28501390253E-01
 0.50147576143E-01 0.94774941632E-01 0.18288686440E+00 0.35403908594E+00 0.68164471202E+00
 0.13005030559E+01 0.24497732898E+01 0.45386953888E+01 0.82353071017E+01 0.14537028160E+02
 0.24737817101E+02 0.40128189396E+02 0.61290925881E+02 0.86972231045E+02 0.11310461564E+03
 0.13317730394E+03 0.14077668505E+03 0.13317722271E+03 0.11310431494E+03 0.86972143164E+02
 0.28131538113E+02 0.18488186974E+02 0.11520378824E+02 0.68784727231E+01 0.39710901050E+01
 0.22316006888E+01 0.12271882367E+01 0.66341727092E+00 0.35396880141E+00 0.18732474107E+00
 0.99088642581E-01 0.53427047745E-01 0.30841174279E-01 0.20946937469E-01 0.18773749721E-01
 0.21737826407E-01 0.28836280623E-01 0.40127455569E-01 0.55504755353E-01 0.74787560947E-01
 0.97414180092E-01 0.12212349540E+00 0.14699253207E+00 0.16931760379E+00 0.18620133626E+00
 0.19537543991E+00 0.19535778663E+00 0.18628843689E+00 0.16936419693E+00 0.14710485561E+00
 0.12221115842E+00 0.97448895498E-01 0.74716686648E-01 0.55463086202E-01 0.40094943802E-01
 0.28917950064E-01 0.21681544463E-01 0.18807961738E-01 0.20970540308E-01 0.30864938680E-01
 0.53375366185E-01 0.99142809814E-01 0.18725982123E+00 0.35408298300E+00 0.66334958795E+00
 0.12272906409E+01 0.22315983969E+01 0.39709127776E+01 0.68787430192E+01 0.11520033900E+02
 0.18488244906E+02 0.28131705457E+02 0.40128185444E+02 0.53057216953E+02 0.64356924278E+02
 0.71039634063E+02 0.71039726675E+02 0.64357027559E+02 0.53057462822E+02 0.40128294872E+02
 0.12928389519E+02 0.85419177237E+01 0.53828999672E+01 0.32622792627E+01 0.19137789005E+01
 0.10941331353E+01 0.61184378864E+00 0.33654118511E+00 0.18293862093E+00 0.99088642580E-01
 0.54561338777E-01 0.32077999219E-01 0.22178252851E-01 0.20256751383E-01 0.23879633024E-01
 0.32499745669E-01 0.46521027077E-01 0.65963923295E-01 0.91136005911E-01 0.12217452495E+00
 0.15781781694E+00 0.19547197363E+00 0.23160615482E+00 0.26178776752E+00 0.28194806422E+00
 0.28902626109E+00 0.28186469417E+00 0.26166640451E+00 0.23147116974E+00 0.19544957539E+00
 0.15783709793E+00 0.12231550704E+00 0.91226661097E-01 0.65873585739E-01 0.46406385854E-01
 0.32602469011E-01 0.23891148524E-01 0.20251247561E-01 0.22208191575E-01 0.32091757343E-01
 0.54530913292E-01 0.99122632585E-01 0.18287104145E+00 0.33657560557E+00 0.61181154645E+00
 0.10940402037E+01 0.19140528482E+01 0.32618985375E+01 0.53832843068E+01 0.85418321098E+01
 0.12928107203E+02 0.18488240076E+02 0.24737807297E+02 0.30692385618E+02 0.35047680208E+02
 0.36655229613E+02 0.35047625031E+02 0.30692251661E+02 0.24737453140E+02 0.18488128755E+02
 0.59726579939E+01 0.39710878907E+01 0.25277880213E+01 0.15507854384E+01 0.92347202534E+00
 0.53533187680E+00 0.30435305714E+00 0.17031869976E+00 0.94721798306E-01 0.53427047745E-01
 0.32077999219E-01 0.22625345817E-01 0.21029013009E-01 0.25289903119E-01 0.35238363351E-01
 0.51740021065E-01 0.75098258117E-01 0.10665262884E+00 0.14711807746E+00 0.19566995926E+00
 0.24929752859E+00 0.30386751348E+00 0.35340603426E+00 0.39136542866E+00 0.41205108591E+00
 0.41209486864E+00 0.39144524244E+00 0.35342706176E+00 0.30375855685E+00 0.24915073440E+00
 0.19547019397E+00 0.14722132657E+00 0.10680569042E+00 0.75083108808E-01 0.51564413292E-01
 0.35345765619E-01 0.25329354142E-01 0.21017315973E-01 0.22643073232E-01 0.32077967479E-01
 0.53411600772E-01 0.94765514843E-01 0.17033849992E+00 0.30433878878E+00 0.53548744710E+00
 0.92314098825E+00 0.15511655423E+01 0.25275141305E+01 0.39709141091E+01 0.59732014493E+01
 0.85418210658E+01 0.11520018334E+02 0.14537007752E+02 0.17048072047E+02 0.18488024985E+02
 0.18488086792E+02 0.17048100267E+02 0.14537284164E+02 0.11520322168E+02 0.85419171061E+01
 0.27791854731E+01 0.18564174274E+01 0.11921682375E+01 0.73977512026E+00 0.44538159709E+00
 0.26234398408E+00 0.15140679705E+00 0.86720556598E-01 0.50165797901E-01 0.30841174279E-01
 0.22178252852E-01 0.21029013009E-01 0.25772508788E-01 0.36725916101E-01 0.55126895079E-01
 0.81938042179E-01 0.11957471441E+00 0.16957826131E+00 0.23177669123E+00 0.30385965329E+00
 0.38133303891E+00 0.45692158823E+00 0.52103951809E+00 0.56423349963E+00 0.57953928854E+00
 0.56428187624E+00 0.52120130595E+00 0.45713901877E+00 0.38152848723E+00 0.30378736284E+00
 0.23156321141E+00 0.16950929324E+00 0.11972502307E+00 0.81975445947E-01 0.54976416763E-01
 0.36789912555E-01 0.25850614642E-01 0.20993437300E-01 0.22243206069E-01 0.30808990215E-01
 0.50179080500E-01 0.86675174729E-01 0.15147791575E+00 0.26216854887E+00 0.44568106657E+00
 0.73952599062E+00 0.11922056256E+01 0.18568406296E+01 0.27786589132E+01 0.39708977985E+01
 0.53832595183E+01 0.68787097181E+01 0.82352704969E+01 0.91952804926E+01 0.95423329978E+01
 0.91952872554E+01 0.82351357282E+01 0.68784467068E+01 0.53828693677E+01 0.39710621857E+01
 0.13001359882E+01 0.87319824551E+00 0.56443993060E+00 0.35351954327E+00 0.21587301747E+00
 0.12861393893E+00 0.76001139950E-01 0.45136807219E-01 0.28484987959E-01 0.20946937469E-01
 0.20256751383E-01 0.25289903119E-01 0.36725916100E-01 0.56302605324E-01 0.85612065876E-01
 0.12818457474E+00 0.18659171304E+00 0.26189244995E+00 0.35331299572E+00 0.45686459613E+00
 0.56424266985E+00 0.66312767980E+00 0.73947349737E+00 0.78128217245E+00 0.78119494178E+00
 0.73938400846E+00 0.66300814023E+00 0.56440321301E+00 0.45714368873E+00 0.35343857192E+00
 0.26175921404E+00 0.18644374184E+00 0.12825344290E+00 0.85708812939E-01 0.56140992899E-01
 0.36808610994E-01 0.25333591025E-01 0.20238981813E-01 0.21001001427E-01 0.28496060107E-01
 0.45194929736E-01 0.75973391682E-01 0.12874310451E+00 0.21565409255E+00 0.35363184462E+00
 0.56453790805E+00 0.87279712148E+00 0.13003797338E+01 0.18568176849E+01 0.25274682371E+01
 0.32618451285E+01 0.39708469805E+01 0.45386296432E+01 0.48568641736E+01 0.48568177513E+01
 0.45386428326E+01 0.39710224232E+01 0.32622078032E+01 0.25277631327E+01 0.18563918425E+01
 0.61164003837E+00 0.41193213289E+00 0.26851873792E+00 0.16982706784E+00 0.10466549859E+00
 0.63969859354E-01 0.39071769943E-01 0.25373441860E-01 0.19093897837E-01 0.18773749722E-01
 0.23879633024E-01 0.35238363351E-01 0.55126895078E-01 0.85612065876E-01 0.13120783097E+00
 0.19576324098E+00 0.28198491668E+00 0.39121758323E+00 0.52104711445E+00 0.66312706599E+00
 0.80332599334E+00 0.92320968856E+00 0.10045782899E+01 0.10334015962E+01 0.10044909589E+01
 0.92302726916E+00 0.80299781020E+00 0.66306295272E+00 0.52124943318E+00 0.39144441760E+00
 0.28195321935E+00 0.19557955983E+00 0.13125630864E+00 0.85701149056E-01 0.54965783188E-01
 0.35333396052E-01 0.23909874569E-01 0.18772548851E-01 0.19130985685E-01 0.25336954750E-01
 0.39131995950E-01 0.63847924533E-01 0.10485193628E+00 0.16974838943E+00 0.26843813842E+00
 0.41218300712E+00 0.61160935440E+00 0.87275741102E+00 0.11921307748E+01 0.15510799709E+01
 0.19139449459E+01 0.22314880137E+01 0.24496481592E+01 0.25276159735E+01 0.24496910337E+01
 0.22314653679E+01 0.19136590846E+01 0.15507020840E+01 0.11920932438E+01 0.87316702941E+00
 0.28905786954E+00 0.19576324097E+00 0.12818457474E+00 0.81938042180E-01 0.51740021064E-01
 0.32499745669E-01 0.21737826410E-01 0.16755402039E-01 0.16755402040E-01 0.21737826410E-01
 0.32499745669E-01 0.51740021064E-01 0.81938042180E-01 0.12818457474E+00 0.19576324098E+00
 0.28905786956E+00 0.41185374571E+00 0.56432397673E+00 0.73961728258E+00 0.92332099696E+00
 0.10939582317E+01 0.12270260299E+01 0.13002896635E+01 0.13002948501E+01 0.12270817237E+01
 0.10938515516E+01 0.92296502634E+00 0.73938551217E+00 0.56442436515E+00 0.41211774843E+00
 0.28905707195E+00 0.19557980345E+00 0.12826066886E+00 0.81986651014E-01 0.51575786706E-01
 0.32586928107E-01 0.21711817985E-01 0.16795950150E-01 0.16795950149E-01 0.21711817985E-01
 0.32586928107E-01 0.51575786706E-01 0.81986651014E-01 0.12826066886E+00 0.19557980345E+00
 0.28905707195E+00 0.41211774843E+00 0.56442436515E+00 0.73938551217E+00 0.92296502634E+00
 0.10938515516E+01 0.12270817237E+01 0.13002948501E+01 0.13002896635E+01 0.12270260299E+01
 0.10939582317E+01 0.92332099696E+00 0.73961728258E+00 0.56432397673E+00 0.41185374570E+00
 0.13726982508E+00 0.93162333469E-01 0.61792616366E-01 0.40140189223E-01 0.26032890394E-01
 0.18021152287E-01 0.14247748034E-01 0.14500754897E-01 0.19076326575E-01 0.28836280623E-01
 0.46521027077E-01 0.75098258116E-01 0.11957471441E+00 0.18659171304E+00 0.28198491668E+00
 0.41185374571E+00 0.57961663529E+00 0.78146880208E+00 0.10046629637E+01 0.12270311103E+01
 0.14192917637E+01 0.15508222093E+01 0.15976415045E+01 0.15509351626E+01 0.14195126468E+01
 0.12270800713E+01 0.10043611989E+01 0.78115726646E+00 0.57967655662E+00 0.41211999370E+00
 0.28195244737E+00 0.18643656337E+00 0.11971416713E+00 0.75070980830E-01 0.46421671168E-01
 0.28888587567E-01 0.18997471173E-01 0.14496562975E-01 0.14239185623E-01 0.17942603878E-01
 0.26159348936E-01 0.40116447286E-01 0.61726864866E-01 0.93299130148E-01 0.13728038711E+00
 0.19547510731E+00 0.26826620735E+00 0.35339940704E+00 0.44540175571E+00 0.53517378786E+00
 0.61147053894E+00 0.66299115234E+00 0.68128050676E+00 0.66302586122E+00 0.61146826566E+00
 0.53499187622E+00 0.44509908418E+00 0.35330384397E+00 0.26835642122E+00 0.19566682845E+00
 0.65558072682E-01 0.44972492811E-01 0.30067234885E-01 0.20257222649E-01 0.14438245238E-01
 0.11625495745E-01 0.12102477472E-01 0.16054192410E-01 0.24643619327E-01 0.40127455569E-01
 0.65963923295E-01 0.10665262884E+00 0.16957826131E+00 0.26189244995E+00 0.39121758323E+00
 0.56432397673E+00 0.78146880208E+00 0.10334991930E+01 0.13002144674E+01 0.15506957240E+01
 0.17476967730E+01 0.18565429233E+01 0.18565953459E+01 0.17478527322E+01 0.15510081314E+01
 0.13003645359E+01 0.10332241274E+01 0.78116680936E+00 0.56441566458E+00 0.39144997431E+00
 0.26176113721E+00 0.16952543987E+00 0.10681252469E+00 0.65865060375E-01 0.40116084973E-01
 0.24655041198E-01 0.16024469363E-01 0.12096320858E-01 0.11659030560E-01 0.14336530263E-01
 0.20267530418E-01 0.30133811933E-01 0.44852601365E-01 0.65563480914E-01 0.93142037418E-01
 0.12799757097E+00 0.16938093488E+00 0.21521628320E+00 0.26165904597E+00 0.30377852625E+00
 0.33597151085E+00 0.35346543738E+00 0.35341560135E+00 0.33598492499E+00 0.30383124718E+00
 0.26184695883E+00 0.21541798502E+00 0.16945169276E+00 0.12790348843E+00 0.93013072332E-01
 0.31558229530E-01 0.21810471442E-01 0.15250268753E-01 0.11097460466E-01 0.91202676085E-02
 0.98108935260E-02 0.13027935245E-01 0.20324328905E-01 0.33291382495E-01 0.55504755352E-01
 0.91136005911E-01 0.14711807746E+00 0.23177669124E+00 0.35331299572E+00 0.52104711445E+00
 0.73961728258E+00 0.10046629637E+01 0.13002144674E+01 0.15974897836E+01 0.18564997886E+01
 0.20343358068E+01 0.20978038743E+01 0.20344069646E+01 0.18566679707E+01 0.15978575865E+01
 0.13003477829E+01 0.10043456107E+01 0.73939793162E+00 0.52124937793E+00 0.35342749846E+00
 0.23155768131E+00 0.14720352365E+00 0.91245061167E-01 0.55433214298E-01 0.33353182483E-01
 0.20266522830E-01 0.13070951506E-01 0.97491823428E-02 0.92564976624E-02 0.11072194604E-01
 0.15211983428E-01 0.21888256915E-01 0.31569183339E-01 0.44622615411E-01 0.61323199151E-01
 0.81424949808E-01 0.10416666444E+00 0.12793136382E+00 0.15056653424E+00 0.16934807590E+00
 0.18183347824E+00 0.18620259087E+00 0.18184840017E+00 0.16930382163E+00 0.15048691811E+00
 0.12780976094E+00 0.10398007391E+00 0.81398533702E-01 0.61383567187E-01 0.44740466922E-01
 0.15444551133E-01 0.11120931246E-01 0.82773394263E-02 0.70944687523E-02 0.77471808640E-02
 0.10227072168E-01 0.16111947591E-01 0.26648313061E-01 0.44814974390E-01 0.74787560946E-01
 0.12217452495E+00 0.19566995926E+00 0.30385965329E+00 0.45686459613E+00 0.66312706599E+00
 0.92332099696E+00 0.12270311103E+01 0.15506957240E+01 0.18564997886E+01 0.20977918130E+01
 0.22314832512E+01 0.22315026109E+01 0.20978464721E+01 0.18567145847E+01 0.15510725152E+01
 0.12270450980E+01 0.92292892627E+00 0.66309316718E+00 0.45713665598E+00 0.30380540642E+00
 0.19547751736E+00 0.12230748843E+00 0.74735622481E-01 0.44860840029E-01 0.26700640062E-01
 0.16099412940E-01 0.10300323012E-01 0.76273564518E-02 0.71119745923E-02 0.83059637603E-02
 0.11060052355E-01 0.15438053466E-01 0.21558285701E-01 0.29528198043E-01 0.39281098502E-01
 0.50518861046E-01 0.62583756607E-01 0.74519998901E-01 0.85074877108E-01 0.93043915400E-01
 0.97349772157E-01 0.97362195122E-01 0.93061670493E-01 0.85131991684E-01 0.74571483260E-01
 0.62689534883E-01 0.50675958241E-01 0.39297257296E-01 0.29477562951E-01 0.21463181887E-01
 0.78276422346E-02 0.59899094094E-02 0.53467230817E-02 0.57895666670E-02 0.77917928708E-02
 0.12398344285E-01 0.20671973397E-01 0.34945560749E-01 0.58934435396E-01 0.97414180091E-01
 0.15781781694E+00 0.24929752859E+00 0.38133303891E+00 0.56424266985E+00 0.80332599334E+00
 0.10939582317E+01 0.14192917637E+01 0.17476967730E+01 0.20343358068E+01 0.22314832512E+01
 0.23017534668E+01 0.22314805167E+01 0.20344397608E+01 0.17479593100E+01 0.14195907659E+01
 0.10937602031E+01 0.80301358231E+00 0.56440255869E+00 0.38151286079E+00 0.24914012282E+00
 0.15784747432E+00 0.97429283080E-01 0.58840236618E-01 0.34962992282E-01 0.20641950533E-01
 0.12364104995E-01 0.78742498767E-02 0.57842259736E-02 0.53142861188E-02 0.60474307900E-02
 0.78235270701E-02 0.10582915810E-01 0.14338482514E-01 0.19036894175E-01 0.24570588052E-01
 0.30646420278E-01 0.36865792570E-01 0.42635187988E-01 0.47385995709E-01 0.50474350980E-01
 0.51541848350E-01 0.50438035597E-01 0.47357348182E-01 0.42598035614E-01 0.36818752740E-01
 0.30559346394E-01 0.24431753993E-01 0.19026054923E-01 0.14383571059E-01 0.10656898996E-01
 0.42825949015E-02 0.39078029172E-02 0.42413320819E-02 0.58282811241E-02 0.93004230236E-02
 0.15399093501E-01 0.26336344854E-01 0.44588513688E-01 0.74654954574E-01 0.12212349540E+00
 0.19547197363E+00 0.30386751348E+00 0.45692158823E+00 0.66312767980E+00 0.92320968856E+00
 0.12270260299E+01 0.15508222093E+01 0.18565429233E+01 0.20978038743E+01 0.22315026109E+01
 0.22314805167E+01 0.20978784112E+01 0.18567299796E+01 0.15511017075E+01 0.12270258718E+01
 0.92293170880E+00 0.66307990452E+00 0.45713024626E+00 0.30377519086E+00 0.19544088987E+00
 0.12222572343E+00 0.74608792481E-01 0.44625390899E-01 0.26313726850E-01 0.15432663162E-01
 0.92103927799E-02 0.58383958100E-02 0.42712864339E-02 0.38569165696E-02 0.42940404033E-02
 0.53835051720E-02 0.70810360702E-02 0.92986957758E-02 0.12003213523E-01 0.15034635430E-01
 0.18243639687E-01 0.21330560127E-01 0.24045735939E-01 0.26030093910E-01 0.27125177521E-01
 0.27136539892E-01 0.26085032435E-01 0.24048237820E-01 0.21375741509E-01 0.18273048272E-01
 0.15116637361E-01 0.12121848833E-01 0.93116045273E-02 0.70372803436E-02 0.53270172129E-02
 0.27393755919E-02 0.30327671661E-02 0.42349923144E-02 0.66772672449E-02 0.11088132769E-01
 0.19191103750E-01 0.32668693796E-01 0.55055448087E-01 0.91066249323E-01 0.14699253207E+00
 0.23160615482E+00 0.35340603426E+00 0.52103951809E+00 0.73947349737E+00 0.10045782899E+01
 0.13002896635E+01 0.15976415045E+01 0.18565953459E+01 0.20344069646E+01 0.20978464721E+01
 0.20344397608E+01 0.18567299797E+01 0.15979018471E+01 0.13003419413E+01 0.10043233860E+01
 0.73939972174E+00 0.52121942263E+00 0.35339709851E+00 0.23148344746E+00 0.14708854949E+00
 0.91024396943E-01 0.55062670525E-01 0.32696760848E-01 0.19159867705E-01 0.11194689458E-01
 0.66572002814E-02 0.42186953968E-02 0.30644329065E-02 0.27361133599E-02 0.29665407043E-02
 0.36245609585E-02 0.46216193035E-02 0.59078793972E-02 0.74059015213E-02 0.90367413328E-02
 0.10667148482E-01 0.12169547978E-01 0.13372649366E-01 0.14175338185E-01 0.14432669683E-01
 0.14143438750E-01 0.13343981600E-01 0.12155888727E-01 0.10639208328E-01 0.90015784905E-02
 0.73463373213E-02 0.57875746382E-02 0.46225562971E-02 0.36517763607E-02 0.30238019589E-02
 0.21341364769E-02 0.30023921174E-02 0.46611064477E-02 0.78868115798E-02 0.13626333687E-01
 0.23194927632E-01 0.39285759745E-01 0.65399216007E-01 0.10656312182E+00 0.16931760379E+00
 0.26178776752E+00 0.39136542866E+00 0.56423349963E+00 0.78128217245E+00 0.10334015962E+01
 0.13002948501E+01 0.15509351626E+01 0.17478527322E+01 0.18566679707E+01 0.18567145847E+01
 0.17479593100E+01 0.15511017075E+01 0.13003419413E+01 0.10331991549E+01 0.78115790627E+00
 0.56439463451E+00 0.39140045348E+00 0.26168570404E+00 0.16936880208E+00 0.10655181428E+00
 0.65381356738E-01 0.39286471247E-01 0.23193745253E-01 0.13542167947E-01 0.78847276250E-02
 0.46908084251E-02 0.29642485583E-02 0.21519315595E-02 0.18883969284E-02 0.20101689903E-02
 0.23799612939E-02 0.29614131952E-02 0.36725150054E-02 0.44947582003E-02 0.53332252030E-02
 0.61546152237E-02 0.68424549599E-02 0.73706541732E-02 0.76233918716E-02 0.76470678479E-02
 0.73787567386E-02 0.68819724337E-02 0.61530451313E-02 0.53682382388E-02 0.45144043328E-02
 0.37331933174E-02 0.30642101502E-02 0.23876501419E-02 0.19765421041E-02 0.18510045420E-02
 0.20471855190E-02 0.31996888984E-02 0.54271326392E-02 0.93172497763E-02 0.15876551191E-01
 0.27189627612E-01 0.45414637825E-01 0.74536338116E-01 0.11941964969E+00 0.18620133626E+00
 0.28194806422E+00 0.41205108591E+00 0.57953928854E+00 0.78119494178E+00 0.10044909589E+01
 0.12270817237E+01 0.14195126468E+01 0.15510081314E+01 0.15978575865E+01 0.15510725152E+01
 0.14195907659E+01 0.12270258718E+01 0.10043233860E+01 0.78115790628E+00 0.57965006052E+00
 0.41207038264E+00 0.28186375552E+00 0.18626827540E+00 0.11941327468E+00 0.74523465740E-01
 0.45446403901E-01 0.27162827567E-01 0.15983248174E-01 0.93013724651E-02 0.54167699584E-02
 0.32166702411E-02 0.20408385546E-02 0.14701401508E-02 0.12817823825E-02 0.13265963658E-02
 0.15388714925E-02 0.18546952186E-02 0.22504671467E-02 0.26760473727E-02 0.31099862035E-02
 0.34960577123E-02 0.38149016772E-02 0.40102971104E-02 0.40941675853E-02 0.40068933501E-02
 0.37948056885E-02 0.34716317729E-02 0.31028548856E-02 0.26556888679E-02 0.22238711866E-02
 0.18129174705E-02 0.14304979844E-02 0.13315894583E-02 0.13000640835E-02 0.15126359341E-02
 0.21447031394E-02 0.36481751963E-02 0.62138916399E-02 0.10715579603E-01 0.18348282020E-01
 0.30648048248E-01 0.50502477114E-01 0.81401089692E-01 0.12794795448E+00 0.19537543991E+00
 0.28902626109E+00 0.41209486864E+00 0.56428187624E+00 0.73938400845E+00 0.92302726916E+00
 0.10938515516E+01 0.12270800713E+01 0.13003645359E+01 0.13003477829E+01 0.12270450980E+01
 0.10937602031E+01 0.92293170880E+00 0.73939972174E+00 0.56439463451E+00 0.41207038264E+00
 0.28896592409E+00 0.19540439253E+00 0.12794067413E+00 0.81392712999E-01 0.50501834038E-01
 0.30648010655E-01 0.18262608179E-01 0.10715232230E-01 0.62352812715E-02 0.36255482552E-02
 0.21626275414E-02 0.13681045293E-02 0.98965323940E-03 0.84587775607E-03 0.86540490833E-03
 0.97019584349E-03 0.11487538977E-02 0.13502532784E-02 0.15777842678E-02 0.17824357256E-02
 0.19719730180E-02 0.20966068733E-02 0.21778481797E-02 0.21611849417E-02 0.21113624556E-02
 0.19809669878E-02 0.18128872774E-02 0.15743935022E-02 0.13754628139E-02 0.11640584631E-02
 0.10130747227E-02 0.96120255563E-03 0.84846043520E-03 0.96548245276E-03 0.13411831026E-02
 0.23913430554E-02 0.40688364699E-02 0.70276592844E-02 0.11969878872E-01 0.20026541508E-01
 0.33258742352E-01 0.53817182746E-01 0.85079982364E-01 0.13095188790E+00 0.19535778663E+00
 0.28186469417E+00 0.39144524244E+00 0.52120130595E+00 0.66300814023E+00 0.80299781020E+00
 0.92296502634E+00 0.10043611989E+01 0.10332241274E+01 0.10043456107E+01 0.92292892627E+00
 0.80301358231E+00 0.66307990452E+00 0.52121942263E+00 0.39140045348E+00 0.28186375552E+00
 0.19540439253E+00 0.13092750054E+00 0.85086043002E-01 0.53828967650E-01 0.33249659133E-01
 0.20121405524E-01 0.11961419984E-01 0.70161302086E-02 0.40782998115E-02 0.23797635031E-02
 0.14179320116E-02 0.90437207660E-03 0.64763060945E-03 0.55367985941E-03 0.54846651948E-03
 0.60772902179E-03 0.69434593474E-03 0.80517235186E-03 0.91170278476E-03 0.10169610369E-02
 0.10937853752E-02 0.11515400793E-02 0.11626529100E-02 0.11570441459E-02 0.10877116617E-02
 0.10015240307E-02 0.89103082454E-03 0.80317662666E-03 0.67925473906E-03 0.58805743581E-03
 0.51884959657E-03 0.45434384727E-03 0.65246754120E-03 0.91952722585E-03 0.14461977268E-02
 0.26007983697E-02 0.44973689265E-02 0.76453552658E-02 0.12882792555E-01 0.21431661785E-01
 0.34637493977E-01 0.55003646225E-01 0.85083223358E-01 0.12794072827E+00 0.18628843689E+00