unknown system                          
   1.00000000000000     
     0.000000    2.734257    2.734257
     2.734257    0.000000    2.734257
     2.734257    2.734257    0.000000
   Si
     2
Direct
  0.000000  0.000000  0.000000
  0.250000  0.250000  0.250000
 
   60   60   60
 0.27279876208E+04 0.66457570316E+02 0.80726075749E+02 0.59510637688E+02 0.23495333852E+02
 0.50926918144E+01 0.13215507138E+01 0.42649930256E+01 0.88303491564E+01 0.12723097805E+02
 0.15267681751E+02 0.16530766076E+02 0.16789214834E+02 0.16336028542E+02 0.15441180982E+02
 0.14321997933E+02 0.13133498764E+02 0.11980763035E+02 0.10924259314E+02 0.99968561881E+01
 0.92090226351E+01 0.85589513839E+01 0.80357958533E+01 0.76252459659E+01 0.73106407205E+01
 0.70760428142E+01 0.69061305527E+01 0.67882584704E+01 0.67116193838E+01 0.66688783640E+01
 0.66550495725E+01 0.66688815288E+01 0.67116232212E+01 0.67882590383E+01 0.69061337786E+01
 0.70760437858E+01 0.73106443254E+01 0.76252595533E+01 0.80357929977E+01 0.85589526854E+01
 0.92090239200E+01 0.99968541722E+01 0.10924254407E+02 0.11980761207E+02 0.13133490257E+02
 0.14321999212E+02 0.15441185581E+02 0.16336024417E+02 0.16789216111E+02 0.16530764030E+02
 0.15267681281E+02 0.12723098985E+02 0.88303483979E+01 0.42649932490E+01 0.13215493631E+01
 0.50926926172E+01 0.23495333546E+02 0.59510637128E+02 0.80726076074E+02 0.66457569906E+02
 0.66457570316E+02 0.73859144462E+02 0.72432821096E+02 0.36105423897E+02 0.10538581300E+02
 0.17280064071E+01 0.25681732995E+01 0.68126650674E+01 0.11153621679E+02 0.14337026284E+02
 0.16172544186E+02 0.16879663316E+02 0.16745970133E+02 0.16054324599E+02 0.15046267206E+02
 0.13906103775E+02 0.12758915969E+02 0.11684830067E+02 0.10728739004E+02 0.99095162341E+01
 0.92304367165E+01 0.86834038849E+01 0.82550181077E+01 0.79284576035E+01 0.76866687477E+01
 0.75130771252E+01 0.73930693980E+01 0.73142428269E+01 0.72671220318E+01 0.72451883897E+01
 0.72451826389E+01 0.72671189018E+01 0.73142376844E+01 0.73930708065E+01 0.75130677607E+01
 0.76866702699E+01 0.79284393519E+01 0.82550158526E+01 0.86834072589E+01 0.92304431095E+01
 0.99095104489E+01 0.10728739169E+02 0.11684829642E+02 0.12758933964E+02 0.13906100757E+02
 0.15046273522E+02 0.16054324379E+02 0.16745980596E+02 0.16879636458E+02 0.16172550755E+02
 0.14336977105E+02 0.11153627989E+02 0.68126150536E+01 0.25681327536E+01 0.17280214966E+01
 0.10538494410E+02 0.36105530283E+02 0.72432873167E+02 0.73859095749E+02 0.66457496054E+02
 0.80726075749E+02 0.72432821096E+02 0.41283565985E+02 0.14730894661E+02 0.28982524126E+01
 0.17251193483E+01 0.52753307145E+01 0.97326394484E+01 0.13362394861E+02 0.15685517625E+02
 0.16809990938E+02 0.16999578128E+02 0.16532160594E+02 0.15662551268E+02 0.14595551238E+02
 0.13476184577E+02 0.12402971118E+02 0.11431974041E+02 0.10592592776E+02 0.98930914780E+01
 0.93295155487E+01 0.88893906820E+01 0.85567375058E+01 0.83133731918E+01 0.81418454481E+01
 0.80255839071E+01 0.79506725647E+01 0.79054565875E+01 0.78818183242E+01 0.78744279344E+01
 0.78818251858E+01 0.79054618756E+01 0.79506777364E+01 0.80255866022E+01 0.81418600643E+01
 0.83133812405E+01 0.85567462901E+01 0.88893928748E+01 0.93295023244E+01 0.98930843564E+01
 0.10592601743E+02 0.11431982960E+02 0.12402961103E+02 0.13476184157E+02 0.14595541294E+02
 0.15662561675E+02 0.16532166615E+02 0.16999568578E+02 0.16809952529E+02 0.15685511511E+02
 0.13362348805E+02 0.97326455532E+01 0.52752897231E+01 0.17251283433E+01 0.28982617523E+01
 0.14730887478E+02 0.41283576137E+02 0.72432814419E+02 0.80726071806E+02 0.73856353102E+02
 0.59510637688E+02 0.36105423897E+02 0.14730894661E+02 0.35071715806E+01 0.14633266331E+01
 0.43530905768E+01 0.86715834431E+01 0.12512162446E+02 0.15178129618E+02 0.16643227929E+02
 0.17124856014E+02 0.16880110796E+02 0.16162769687E+02 0.15187387180E+02 0.14116233480E+02
 0.13060995757E+02 0.12090152975E+02 0.11242607374E+02 0.10532695004E+02 0.99606638495E+01
 0.95161116616E+01 0.91837369610E+01 0.89451029424E+01 0.87817077027E+01 0.86755402241E+01
 0.86109217485E+01 0.85744716489E+01 0.85559979358E+01 0.85485181586E+01 0.85485080791E+01
 0.85559954067E+01 0.85744555910E+01 0.86109165218E+01 0.86755256154E+01 0.87816832975E+01
 0.89451015132E+01 0.91837434607E+01 0.95161129711E+01 0.99606717784E+01 0.10532694996E+02
 0.11242609449E+02 0.12090155465E+02 0.13060987840E+02 0.14116222468E+02 0.15187392048E+02
 0.16162745321E+02 0.16880098812E+02 0.17124872731E+02 0.16643231170E+02 0.15178145467E+02
 0.12512143965E+02 0.86715744789E+01 0.43530485943E+01 0.14633153905E+01 0.35071604468E+01
 0.14730954169E+02 0.36105505356E+02 0.59510564270E+02 0.72424547674E+02 0.72424605399E+02
 0.23495333852E+02 0.10538581300E+02 0.28982524126E+01 0.14633266331E+01 0.40518894770E+01
 0.81098542669E+01 0.11935434102E+02 0.14761714371E+02 0.16452444745E+02 0.17162103245E+02
 0.17114310057E+02 0.16546656573E+02 0.15673215163E+02 0.14665797967E+02 0.13643072789E+02
 0.12687203379E+02 0.11843925102E+02 0.11134352741E+02 0.10562788064E+02 0.10121624874E+02
 0.97965036734E+01 0.95691150089E+01 0.94201324295E+01 0.93304925499E+01 0.92827839234E+01
 0.92619556004E+01 0.92559323499E+01 0.92558725797E+01 0.92564612452E+01 0.92558798535E+01
 0.92559515305E+01 0.92619758007E+01 0.92828099352E+01 0.93305118885E+01 0.94201480876E+01
 0.95691019954E+01 0.97964796769E+01 0.10121624960E+02 0.10562811256E+02 0.11134347210E+02
 0.11843904118E+02 0.12687200392E+02 0.13643076284E+02 0.14665804038E+02 0.15673233457E+02
 0.16546653824E+02 0.17114300009E+02 0.17162091538E+02 0.16452446562E+02 0.14761718197E+02
 0.11935491084E+02 0.81098475825E+01 0.40519546992E+01 0.14633244560E+01 0.28981772687E+01
 0.10538594097E+02 0.23495327051E+02 0.36088853043E+02 0.41261399623E+02 0.36088878193E+02
 0.50926918144E+01 0.17280064071E+01 0.17251193483E+01 0.43530905768E+01 0.81098542669E+01
 0.11731867192E+02 0.14527837258E+02 0.16305586563E+02 0.17155170513E+02 0.17257223540E+02
 0.16820863306E+02 0.16049183102E+02 0.15112345627E+02 0.14135984815E+02 0.13208298644E+02
 0.12381513057E+02 0.11683163826E+02 0.11121488456E+02 0.10691826311E+02 0.10381115751E+02
 0.10171632133E+02 0.10043498438E+02 0.99766677756E+01 0.99523412349E+01 0.99537734681E+01
 0.99672460992E+01 0.99821641806E+01 0.99914110265E+01 0.99914087263E+01 0.99821399748E+01
 0.99672027889E+01 0.99537383973E+01 0.99522999311E+01 0.99766753177E+01 0.10043518233E+02
 0.10171650243E+02 0.10381118565E+02 0.10691817057E+02 0.11121482234E+02 0.11683176371E+02
 0.12381495941E+02 0.13208305109E+02 0.14135991661E+02 0.15112349459E+02 0.16049175745E+02
 0.16820881347E+02 0.17257207800E+02 0.17155200274E+02 0.16305583075E+02 0.14527819618E+02
 0.11731873169E+02 0.81097798752E+01 0.43530652717E+01 0.17251122382E+01 0.17279933881E+01
 0.50926550832E+01 0.10510582575E+02 0.14689033715E+02 0.14688966263E+02 0.10510483502E+02
 0.13215507138E+01 0.25681732995E+01 0.52753307145E+01 0.86715834431E+01 0.11935434102E+02
 0.14527837258E+02 0.16250780724E+02 0.17141190192E+02 0.17331604659E+02 0.16995343873E+02
 0.16314892935E+02 0.15451036328E+02 0.14529264527E+02 0.13640668475E+02 0.12841631090E+02
 0.12165063645E+02 0.11622557299E+02 0.11212611075E+02 0.10923473058E+02 0.10738522474E+02
 0.10637327103E+02 0.10599264228E+02 0.10604021722E+02 0.10633884895E+02 0.10673215248E+02
 0.10710199691E+02 0.10735766880E+02 0.10744975793E+02 0.10735792164E+02 0.10710253065E+02
 0.10673291671E+02 0.10633910470E+02 0.10604009931E+02 0.10599224079E+02 0.10637280002E+02
 0.10738549591E+02 0.10923507791E+02 0.11212597076E+02 0.11622517837E+02 0.12165084934E+02
 0.12841632913E+02 0.13640680175E+02 0.14529283502E+02 0.15451051783E+02 0.16314869341E+02
 0.16995374157E+02 0.17331604496E+02 0.17141194037E+02 0.16250795467E+02 0.14527809801E+02
 0.11935494681E+02 0.86715602665E+01 0.52752741942E+01 0.25682050896E+01 0.13216210282E+01
 0.16854961961E+01 0.28304109748E+01 0.34310073313E+01 0.28304957943E+01 0.16855235979E+01
 0.42649930256E+01 0.68126650674E+01 0.97326394484E+01 0.12512162446E+02 0.14761714371E+02
 0.16305586563E+02 0.17141190192E+02 0.17354343101E+02 0.17079701508E+02 0.16472715823E+02
 0.15678051025E+02 0.14815360656E+02 0.13973874936E+02 0.13212502153E+02 0.12567214640E+02
 0.12052838116E+02 0.11670341164E+02 0.11409933158E+02 0.11255602666E+02 0.11187035055E+02
 0.11182921346E+02 0.11222165199E+02 0.11285663795E+02 0.11356652595E+02 0.11421581019E+02
 0.11470397255E+02 0.11496427798E+02 0.11496415470E+02 0.11470331300E+02 0.11421511213E+02
 0.11356603977E+02 0.11285738670E+02 0.11222245020E+02 0.11182936894E+02 0.11186991043E+02
 0.11255580643E+02 0.11409957832E+02 0.11670358286E+02 0.12052797799E+02 0.12567235741E+02
 0.13212512622E+02 0.13973872728E+02 0.14815359114E+02 0.15678062079E+02 0.16472699570E+02
 0.17079714444E+02 0.17354349561E+02 0.17141201433E+02 0.16305641564E+02 0.14761655283E+02
 0.12512187617E+02 0.97326869566E+01 0.68125980341E+01 0.42649642749E+01 0.25079176900E+01
 0.16250656066E+01 0.13435306427E+01 0.13435210979E+01 0.16250823183E+01 0.25078446316E+01
 0.88303491564E+01 0.11153621679E+02 0.13362394861E+02 0.15178129618E+02 0.16452444745E+02
 0.17155170513E+02 0.17331604659E+02 0.17079701508E+02 0.16525000194E+02 0.15791850753E+02
 0.14988975375E+02 0.14200222263E+02 0.13484430952E+02 0.12878857052E+02 0.12400584100E+02
 0.12052838116E+02 0.11827572744E+02 0.11709534707E+02 0.11678569593E+02 0.11713204546E+02
 0.11791446420E+02 0.11892944713E+02 0.11999679001E+02 0.12097169626E+02 0.12174287357E+02
 0.12223601685E+02 0.12240469236E+02 0.12223635701E+02 0.12174341606E+02 0.12097174317E+02
 0.11999550674E+02 0.11892839233E+02 0.11791451327E+02 0.11713294113E+02 0.11678601404E+02
 0.11709478043E+02 0.11827539649E+02 0.12052887247E+02 0.12400558465E+02 0.12878874998E+02
 0.13484454629E+02 0.14200234234E+02 0.14988964159E+02 0.15791861005E+02 0.16524979838E+02
 0.17079719420E+02 0.17331641918E+02 0.17155104572E+02 0.16452526936E+02 0.15178073760E+02
 0.13362356415E+02 0.11153657924E+02 0.88303514636E+01 0.67310042248E+01 0.51361250732E+01
 0.41796738777E+01 0.38671980636E+01 0.41796567202E+01 0.51361413453E+01 0.67310210773E+01
 0.12723097805E+02 0.14337026284E+02 0.15685517625E+02 0.16643227929E+02 0.17162103245E+02
 0.17257223540E+02 0.16995343873E+02 0.16472715823E+02 0.15791850753E+02 0.15047167237E+02
 0.14314656852E+02 0.13650456508E+02 0.13091495727E+02 0.12656209137E+02 0.12349546413E+02
 0.12165063645E+02 0.12088202710E+02 0.12099358463E+02 0.12176756992E+02 0.12297563916E+02
 0.12440102031E+02 0.12585537853E+02 0.12718747715E+02 0.12828066667E+02 0.12905274632E+02
 0.12945139320E+02 0.12945124341E+02 0.12905295695E+02 0.12828122688E+02 0.12718900796E+02
 0.12585656803E+02 0.12440010451E+02 0.12297402015E+02 0.12176815672E+02 0.12099448591E+02
 0.12088183839E+02 0.12164978091E+02 0.12349614195E+02 0.12656193059E+02 0.13091498487E+02
 0.13650460038E+02 0.14314671544E+02 0.15047149477E+02 0.15791861455E+02 0.16472711384E+02
 0.16995302370E+02 0.17257297933E+02 0.17162016597E+02 0.16643290487E+02 0.15685530393E+02
 0.14336952804E+02 0.12723061111E+02 0.11047023015E+02 0.95471813041E+01 0.84339979645E+01
 0.78463495196E+01 0.78464159185E+01 0.84340137179E+01 0.95471375971E+01 0.11046995109E+02
 0.15267681751E+02 0.16172544186E+02 0.16809990938E+02 0.17124856014E+02 0.17114310057E+02
 0.16820863306E+02 0.16314892935E+02 0.15678051025E+02 0.14988975375E+02 0.14314656852E+02
 0.13706264858E+02 0.13199278166E+02 0.12812513474E+02 0.12552166520E+02 0.12413065720E+02
 0.12381513057E+02 0.12438500517E+02 0.12561909833E+02 0.12727885957E+02 0.12913877172E+02
 0.13100388770E+02 0.13271854555E+02 0.13415039537E+02 0.13522021517E+02 0.13587826099E+02
 0.13610002827E+02 0.13587773950E+02 0.13521941158E+02 0.13414909776E+02 0.13271845217E+02
 0.13100584309E+02 0.12914006906E+02 0.12727729047E+02 0.12561843522E+02 0.12438584659E+02
 0.12381544142E+02 0.12412966351E+02 0.12552229065E+02 0.12812528366E+02 0.13199283522E+02
 0.13706277012E+02 0.14314663427E+02 0.14988975792E+02 0.15678031745E+02 0.16314957168E+02
 0.16820779682E+02 0.17114438159E+02 0.17124740598E+02 0.16809959354E+02 0.16172581876E+02
 0.15267734708E+02 0.14201313743E+02 0.13122780177E+02 0.12199209140E+02 0.11578811136E+02
 0.11360677417E+02 0.11578807697E+02 0.12199165577E+02 0.13122772897E+02 0.14201336583E+02
 0.16530766076E+02 0.16879663316E+02 0.16999578128E+02 0.16880110796E+02 0.16546656573E+02
 0.16049183102E+02 0.15451036328E+02 0.14815360656E+02 0.14200222263E+02 0.13650456508E+02
 0.13199278166E+02 0.12865136246E+02 0.12654949655E+02 0.12564705472E+02 0.12581556526E+02
 0.12687203379E+02 0.12859019030E+02 0.13072364383E+02 0.13303898984E+02 0.13533631260E+02
 0.13743298505E+02 0.13920626256E+02 0.14057912057E+02 0.14151005346E+02 0.14197838321E+02
 0.14197860001E+02 0.14151017696E+02 0.14057924825E+02 0.13920468104E+02 0.13743124158E+02
 0.13533584970E+02 0.13304167244E+02 0.13072348355E+02 0.12858889943E+02 0.12687224768E+02
 0.12581640788E+02 0.12564592311E+02 0.12655001880E+02 0.12865136636E+02 0.13199281126E+02
 0.13650472580E+02 0.14200212401E+02 0.14815405505E+02 0.15450943806E+02 0.16049302383E+02
 0.16546497074E+02 0.16880184034E+02 0.16999631278E+02 0.16879594119E+02 0.16530726884E+02
 0.16003754377E+02 0.15383720173E+02 0.14777748356E+02 0.14296228298E+02 0.14030008279E+02
 0.14030015247E+02 0.14296293394E+02 0.14777818040E+02 0.15383704448E+02 0.16003721039E+02
 0.16789214834E+02 0.16745970133E+02 0.16532160594E+02 0.16162769687E+02 0.15673215163E+02
 0.15112345627E+02 0.14529264527E+02 0.13973874936E+02 0.13484430952E+02 0.13091495727E+02
 0.12812513474E+02 0.12654949655E+02 0.12615697537E+02 0.12682966179E+02 0.12838994507E+02
 0.13060995757E+02 0.13323491306E+02 0.13602558694E+02 0.13876167978E+02 0.14124916727E+02
 0.14336635381E+02 0.14503897422E+02 0.14623436178E+02 0.14694713767E+02 0.14718306379E+02
 0.14694756230E+02 0.14623538360E+02 0.14504028767E+02 0.14336699045E+02 0.14124772701E+02
 0.13875920388E+02 0.13602728296E+02 0.13323644382E+02 0.13060826205E+02 0.12838996826E+02
 0.12683045405E+02 0.12615629571E+02 0.12654981047E+02 0.12812554059E+02 0.13091459045E+02
 0.13484509355E+02 0.13973789589E+02 0.14529429557E+02 0.15112191041E+02 0.15673396756E+02
 0.16162688637E+02 0.16532084555E+02 0.16746031455E+02 0.16789251495E+02 0.16673203402E+02
 0.16437343004E+02 0.16143024655E+02 0.15861957395E+02 0.15661237601E+02 0.15588504776E+02
 0.15661180131E+02 0.15861875827E+02 0.16142965154E+02 0.16437334835E+02 0.16673248231E+02
 0.16336028542E+02 0.16054324599E+02 0.15662551268E+02 0.15187387180E+02 0.14665797967E+02
 0.14135984815E+02 0.13640668475E+02 0.13212502153E+02 0.12878857052E+02 0.12656209137E+02
 0.12552166520E+02 0.12564705472E+02 0.12682966179E+02 0.12890044158E+02 0.13163116659E+02
 0.13476184577E+02 0.13804392978E+02 0.14123287721E+02 0.14412463863E+02 0.14659129631E+02
 0.14855792849E+02 0.14999962868E+02 0.15093383939E+02 0.15139010620E+02 0.15138978010E+02
 0.15093389546E+02 0.14999983001E+02 0.14855916601E+02 0.14659314891E+02 0.14412493597E+02
 0.14122979632E+02 0.13804449977E+02 0.13476404272E+02 0.13162957540E+02 0.12890025797E+02
 0.12683030397E+02 0.12564627808E+02 0.12552186514E+02 0.12656251322E+02 0.12878798641E+02
 0.13212616108E+02 0.13640519463E+02 0.14136148037E+02 0.14665672868E+02 0.15187389844E+02
 0.15662718559E+02 0.16054168619E+02 0.16336070735E+02 0.16497577464E+02 0.16547294749E+02
 0.16511375109E+02 0.16429066580E+02 0.16343007419E+02 0.16289690586E+02 0.16289688824E+02
 0.16343097234E+02 0.16429148859E+02 0.16511501803E+02 0.16547236801E+02 0.16497519787E+02
 0.15441180982E+02 0.15046267206E+02 0.14595551238E+02 0.14116233480E+02 0.13643072789E+02
 0.13208298644E+02 0.12841631090E+02 0.12567214640E+02 0.12400584100E+02 0.12349546413E+02
 0.12413065720E+02 0.12581556526E+02 0.12838994507E+02 0.13163116659E+02 0.13527401654E+02
 0.13906103775E+02 0.14272244218E+02 0.14604264149E+02 0.14887633680E+02 0.15113988605E+02
 0.15281828971E+02 0.15394839052E+02 0.15459196760E+02 0.15479912937E+02 0.15459133903E+02
 0.15394770093E+02 0.15281754697E+02 0.15114014545E+02 0.14887834056E+02 0.14604398717E+02
 0.14271966910E+02 0.13906080523E+02 0.13527652268E+02 0.13162949483E+02 0.12839017764E+02
 0.12581601533E+02 0.12413011613E+02 0.12349557074E+02 0.12400628556E+02 0.12567150534E+02
 0.12841756119E+02 0.13208218409E+02 0.13643097267E+02 0.14116360454E+02 0.14595262331E+02
 0.15046468305E+02 0.15441240192E+02 0.15759075384E+02 0.15990918177E+02 0.16140140861E+02
 0.16221208678E+02 0.16255450276E+02 0.16264926036E+02 0.16266069632E+02 0.16264887835E+02
 0.16255359915E+02 0.16221068724E+02 0.16140057765E+02 0.15990999837E+02 0.15759236054E+02
 0.14321997933E+02 0.13906103775E+02 0.13476184577E+02 0.13060995757E+02 0.12687203379E+02
 0.12381513057E+02 0.12165063645E+02 0.12052838116E+02 0.12052838116E+02 0.12165063645E+02
 0.12381513057E+02 0.12687203379E+02 0.13060995757E+02 0.13476184577E+02 0.13906103775E+02
 0.14321997933E+02 0.14700034562E+02 0.15023445892E+02 0.15282278639E+02 0.15474837942E+02
 0.15606532353E+02 0.15686463605E+02 0.15723652826E+02 0.15723660859E+02 0.15686386634E+02
 0.15606434278E+02 0.15474677975E+02 0.15282226479E+02 0.15023602867E+02 0.14700229932E+02
 0.14321727420E+02 0.13906087388E+02 0.13476405800E+02 0.13060814183E+02 0.12687252346E+02
 0.12381513544E+02 0.12165014572E+02 0.12052844191E+02 0.12052844191E+02 0.12165014572E+02
 0.12381513544E+02 0.12687252346E+02 0.13060814183E+02 0.13476405800E+02 0.13906087388E+02
 0.14321727420E+02 0.14700229932E+02 0.15023602867E+02 0.15282226479E+02 0.15474677975E+02
 0.15606434278E+02 0.15686386634E+02 0.15723660859E+02 0.15723652826E+02 0.15686463605E+02
 0.15606532353E+02 0.15474837942E+02 0.15282278639E+02 0.15023445892E+02 0.14700034562E+02
 0.13133498764E+02 0.12758915969E+02 0.12402971118E+02 0.12090152975E+02 0.11843925102E+02
 0.11683163826E+02 0.11622557299E+02 0.11670341164E+02 0.11827572744E+02 0.12088202710E+02
 0.12438500517E+02 0.12859019030E+02 0.13323491306E+02 0.13804392978E+02 0.14272244218E+02
 0.14700034562E+02 0.15068444739E+02 0.15365001612E+02 0.15586576565E+02 0.15738930439E+02
 0.15833765755E+02 0.15883903852E+02 0.15899367084E+02 0.15883934020E+02 0.15833758525E+02
 0.15738880265E+02 0.15586388040E+02 0.15364896036E+02 0.15068577642E+02 0.14700242004E+02
 0.14271958910E+02 0.13804441090E+02 0.13323665874E+02 0.12858852610E+02 0.12438624815E+02
 0.12088139796E+02 0.11827589144E+02 0.11670309114E+02 0.11622590600E+02 0.11683152471E+02
 0.11843879747E+02 0.12090249757E+02 0.12402879824E+02 0.12758803943E+02 0.13133769114E+02
 0.13504363855E+02 0.13849312972E+02 0.14152904846E+02 0.14404661738E+02 0.14599425404E+02
 0.14736254870E+02 0.14816909732E+02 0.14843522369E+02 0.14816896093E+02 0.14736166431E+02
 0.14599300024E+02 0.14404499267E+02 0.14152909543E+02 0.13849591461E+02 0.13504380446E+02
 0.11980763035E+02 0.11684830067E+02 0.11431974041E+02 0.11242607374E+02 0.11134352741E+02
 0.11121488456E+02 0.11212611075E+02 0.11409933158E+02 0.11709534707E+02 0.12099358463E+02
 0.12561909833E+02 0.13072364383E+02 0.13602558694E+02 0.14123287721E+02 0.14604264149E+02
 0.15023445892E+02 0.15365001612E+02 0.15623039179E+02 0.15802137643E+02 0.15914979417E+02
 0.15977563922E+02 0.16004531032E+02 0.16004556237E+02 0.15977606547E+02 0.15915039752E+02
 0.15802127630E+02 0.15622875655E+02 0.15364865917E+02 0.15023588888E+02 0.14604426736E+02
 0.14122978672E+02 0.13602706198E+02 0.13072388878E+02 0.12561801757E+02 0.12099489728E+02
 0.11709435152E+02 0.11409995817E+02 0.11212536110E+02 0.11121495640E+02 0.11134370560E+02
 0.11242538159E+02 0.11432039454E+02 0.11684925034E+02 0.11980625174E+02 0.12297657977E+02
 0.12615267118E+02 0.12914866771E+02 0.13182171312E+02 0.13404057881E+02 0.13574839301E+02
 0.13690174774E+02 0.13748183560E+02 0.13748187917E+02 0.13690202542E+02 0.13574949957E+02
 0.13404210755E+02 0.13182304143E+02 0.12914726123E+02 0.12615043521E+02 0.12297779763E+02
 0.10924259314E+02 0.10728739004E+02 0.10592592776E+02 0.10532695004E+02 0.10562788064E+02
 0.10691826311E+02 0.10923473058E+02 0.11255602666E+02 0.11678569593E+02 0.12176756992E+02
 0.12727885957E+02 0.13303898984E+02 0.13876167978E+02 0.14412463863E+02 0.14887633680E+02
 0.15282278639E+02 0.15586576565E+02 0.15802137643E+02 0.15940750716E+02 0.16019907803E+02
 0.16058063059E+02 0.16069091758E+02 0.16058137022E+02 0.16019980322E+02 0.15940832549E+02
 0.15802145368E+02 0.15586429981E+02 0.15282159206E+02 0.14887840688E+02 0.14412505677E+02
 0.13875930600E+02 0.13304133406E+02 0.12727765070E+02 0.12176783130E+02 0.11678634728E+02
 0.11255552472E+02 0.10923561654E+02 0.10691808014E+02 0.10562793593E+02 0.10532746698E+02
 0.10592559943E+02 0.10728663446E+02 0.10924347621E+02 0.11160900187E+02 0.11419110508E+02
 0.11680373088E+02 0.11928110647E+02 0.12148007471E+02 0.12329113103E+02 0.12463622558E+02
 0.12546345829E+02 0.12574233768E+02 0.12546333801E+02 0.12463576837E+02 0.12328968620E+02
 0.12147854597E+02 0.11928087507E+02 0.11680553147E+02 0.11419196760E+02 0.11160808346E+02
 0.99968561881E+01 0.99095162341E+01 0.98930914780E+01 0.99606638495E+01 0.10121624874E+02
 0.10381115751E+02 0.10738522474E+02 0.11187035055E+02 0.11713204546E+02 0.12297563916E+02
 0.12913877172E+02 0.13533631260E+02 0.14124916727E+02 0.14659129631E+02 0.15113988605E+02
 0.15474837942E+02 0.15738930439E+02 0.15914979417E+02 0.16019907803E+02 0.16074140633E+02
 0.16096001856E+02 0.16095995672E+02 0.16074239690E+02 0.16019996467E+02 0.15915094183E+02
 0.15738894149E+02 0.15474700157E+02 0.15113901721E+02 0.14659387958E+02 0.14124746296E+02
 0.13533599358E+02 0.12914000564E+02 0.12297401440E+02 0.11713291096E+02 0.11186992975E+02
 0.10738517521E+02 0.10381108963E+02 0.10121652769E+02 0.99606187300E+01 0.98931335649E+01
 0.99095582452E+01 0.99967930268E+01 0.10139111974E+02 0.10319519766E+02 0.10520634424E+02
 0.10725919471E+02 0.10920242796E+02 0.11090950268E+02 0.11227760886E+02 0.11323056178E+02
 0.11371887012E+02 0.11371893820E+02 0.11323076767E+02 0.11227842480E+02 0.11091107972E+02
 0.10920329548E+02 0.10725862717E+02 0.10520533768E+02 0.10319458530E+02 0.10139185101E+02
 0.92090226351E+01 0.92304367165E+01 0.93295155487E+01 0.95161116616E+01 0.97965036734E+01
 0.10171632133E+02 0.10637327103E+02 0.11182921346E+02 0.11791446420E+02 0.12440102031E+02
 0.13100388770E+02 0.13743298505E+02 0.14336635381E+02 0.14855792849E+02 0.15281828971E+02
 0.15606532353E+02 0.15833765755E+02 0.15977563922E+02 0.16058063059E+02 0.16096001856E+02
 0.16106712998E+02 0.16096004652E+02 0.16058158125E+02 0.15977669273E+02 0.15833844016E+02
 0.15606492576E+02 0.15281677943E+02 0.14855865885E+02 0.14336784152E+02 0.13743072602E+02
 0.13100599334E+02 0.12440016334E+02 0.11791451062E+02 0.11182934305E+02 0.10637314348E+02
 0.10171657117E+02 0.97964596800E+01 0.95161537828E+01 0.93294593343E+01 0.92304026413E+01
 0.92090778757E+01 0.92527772029E+01 0.93468501030E+01 0.94757793690E+01 0.96239938200E+01
 0.97767480987E+01 0.99208118326E+01 0.10044826818E+02 0.10139821105E+02 0.10199410335E+02
 0.10219704716E+02 0.10199400458E+02 0.10139770026E+02 0.10044724069E+02 0.99206913305E+01
 0.97767341121E+01 0.96240269910E+01 0.94758524808E+01 0.93468994741E+01 0.92527177047E+01
 0.85589513839E+01 0.86834038849E+01 0.88893906820E+01 0.91837369610E+01 0.95691150089E+01
 0.10043498438E+02 0.10599264228E+02 0.11222165199E+02 0.11892944713E+02 0.12585537853E+02
 0.13271854555E+02 0.13920626256E+02 0.14503897422E+02 0.14999962868E+02 0.15394839052E+02
 0.15686463605E+02 0.15883903852E+02 0.16004531032E+02 0.16069091758E+02 0.16095995672E+02
 0.16096004652E+02 0.16069178026E+02 0.16004599570E+02 0.15884037689E+02 0.15686447469E+02
 0.15394755581E+02 0.14999860228E+02 0.14504108380E+02 0.13920455212E+02 0.13271835536E+02
 0.12585667906E+02 0.11892809078E+02 0.11222277982E+02 0.10599166333E+02 0.10043529772E+02
 0.95691028482E+01 0.91837223316E+01 0.88894228268E+01 0.86834493346E+01 0.85588973876E+01
 0.85058159497E+01 0.85119686372E+01 0.85638304581E+01 0.86473209861E+01 0.87486254793E+01
 0.88548214814E+01 0.89543898406E+01 0.90378035744E+01 0.90976444340E+01 0.91288405523E+01
 0.91288437803E+01 0.90976760339E+01 0.90378795056E+01 0.89544719944E+01 0.88548875300E+01
 0.87486390491E+01 0.86472961681E+01 0.85637719043E+01 0.85119299107E+01 0.85058605032E+01
 0.80357958533E+01 0.82550181077E+01 0.85567375058E+01 0.89451029424E+01 0.94201324295E+01
 0.99766677756E+01 0.10604021722E+02 0.11285663795E+02 0.11999679001E+02 0.12718747715E+02
 0.13415039537E+02 0.14057912057E+02 0.14623436178E+02 0.15093383939E+02 0.15459196760E+02
 0.15723652826E+02 0.15899367084E+02 0.16004556237E+02 0.16058137022E+02 0.16074239690E+02
 0.16058158125E+02 0.16004599570E+02 0.15899509103E+02 0.15723722903E+02 0.15459131414E+02
 0.15093254546E+02 0.14623572054E+02 0.14057990147E+02 0.13414848245E+02 0.12718925138E+02
 0.11999573519E+02 0.11285713241E+02 0.10604054646E+02 0.99766748188E+01 0.94201421077E+01
 0.89451237735E+01 0.85567130491E+01 0.82549834057E+01 0.80358417468E+01 0.78918378777E+01
 0.78130879778E+01 0.77880347791E+01 0.78042853271E+01 0.78492352362E+01 0.79107777771E+01
 0.79777493545E+01 0.80405341810E+01 0.80911772430E+01 0.81239129930E+01 0.81352059000E+01
 0.81238911822E+01 0.80911251266E+01 0.80404652628E+01 0.79777104472E+01 0.79107129904E+01
 0.78492294620E+01 0.78043027735E+01 0.77880829560E+01 0.78131211904E+01 0.78918031687E+01
 0.76252459659E+01 0.79284576035E+01 0.83133731918E+01 0.87817077027E+01 0.93304925499E+01
 0.99523412349E+01 0.10633884895E+02 0.11356652595E+02 0.12097169626E+02 0.12828066667E+02
 0.13522021517E+02 0.14151005346E+02 0.14694713767E+02 0.15139010620E+02 0.15479912937E+02
 0.15723660859E+02 0.15883934020E+02 0.15977606547E+02 0.16019980322E+02 0.16019996467E+02
 0.15977669273E+02 0.15884037689E+02 0.15723722903E+02 0.15479906287E+02 0.15138874737E+02
 0.14694697392E+02 0.14151167048E+02 0.13521817263E+02 0.12828190575E+02 0.12097127190E+02
 0.11356611698E+02 0.10633892371E+02 0.99522815598E+01 0.93305304826E+01 0.87816516593E+01
 0.83134254251E+01 0.79284552691E+01 0.76252245743E+01 0.73985821811E+01 0.72408645994E+01
 0.71424021918E+01 0.70925199382E+01 0.70799329757E+01 0.70935985511E+01 0.71229763619E+01
 0.71587403688E+01 0.71928402322E+01 0.72191802291E+01 0.72334292637E+01 0.72334602898E+01
 0.72192057263E+01 0.71929047739E+01 0.71587621265E+01 0.71230298248E+01 0.70936376992E+01
 0.70799533672E+01 0.70924891118E+01 0.71423811054E+01 0.72408147048E+01 0.73986287246E+01
 0.73106407205E+01 0.76866687477E+01 0.81418454481E+01 0.86755402241E+01 0.92827839234E+01
 0.99537734681E+01 0.10673215248E+02 0.11421581019E+02 0.12174287357E+02 0.12905274632E+02
 0.13587826099E+02 0.14197838321E+02 0.14718306379E+02 0.15138978010E+02 0.15459133903E+02
 0.15686386634E+02 0.15833758525E+02 0.15915039752E+02 0.15940832549E+02 0.15915094183E+02
 0.15833844016E+02 0.15686447469E+02 0.15459131414E+02 0.15138874737E+02 0.14718270866E+02
 0.14198039605E+02 0.13587665112E+02 0.12905319293E+02 0.12174365893E+02 0.11421504210E+02
 0.10673329841E+02 0.99537263023E+01 0.92828192901E+01 0.86755314909E+01 0.81418371651E+01
 0.76866407948E+01 0.73106940600E+01 0.70110238453E+01 0.67819773616E+01 0.66157331210E+01
 0.65032267457E+01 0.64345724087E+01 0.63998235016E+01 0.63892774916E+01 0.63940811181E+01
 0.64064154405E+01 0.64199970486E+01 0.64300416606E+01 0.64337063123E+01 0.64300090697E+01
 0.64199549406E+01 0.64063937722E+01 0.63940402154E+01 0.63892510143E+01 0.63997698670E+01
 0.64345741064E+01 0.65032325568E+01 0.66157705432E+01 0.67820011751E+01 0.70110110708E+01
 0.70760428142E+01 0.75130771252E+01 0.80255839071E+01 0.86109217485E+01 0.92619556004E+01
 0.99672460992E+01 0.10710199691E+02 0.11470397255E+02 0.12223601685E+02 0.12945139320E+02
 0.13610002827E+02 0.14197860001E+02 0.14694756230E+02 0.15093389546E+02 0.15394770093E+02
 0.15606434278E+02 0.15738880265E+02 0.15802127630E+02 0.15802145368E+02 0.15738894149E+02
 0.15606492576E+02 0.15394755581E+02 0.15093254546E+02 0.14694697392E+02 0.14198039605E+02
 0.13609864426E+02 0.12945135394E+02 0.12223650789E+02 0.11470304856E+02 0.10710227161E+02
 0.99672032635E+01 0.92619837041E+01 0.86108968787E+01 0.80256229574E+01 0.75130799732E+01
 0.70760067426E+01 0.67134499627E+01 0.64215990112E+01 0.61943916269E+01 0.60242859593E+01
 0.59027780854E+01 0.58210281512E+01 0.57702481780E+01 0.57421878648E+01 0.57294071015E+01
 0.57256415870E+01 0.57259295444E+01 0.57269520299E+01 0.57269666188E+01 0.57259678542E+01
 0.57256581548E+01 0.57294355032E+01 0.57422176446E+01 0.57702760495E+01 0.58210702816E+01
 0.59027844446E+01 0.60242725165E+01 0.61943709996E+01 0.64215630445E+01 0.67134729740E+01
 0.69061305527E+01 0.73930693980E+01 0.79506725647E+01 0.85744716489E+01 0.92559323499E+01
 0.99821641806E+01 0.10735766880E+02 0.11496427798E+02 0.12240469236E+02 0.12945124341E+02
 0.13587773950E+02 0.14151017696E+02 0.14623538360E+02 0.14999983001E+02 0.15281754697E+02
 0.15474677975E+02 0.15586388040E+02 0.15622875655E+02 0.15586429981E+02 0.15474700157E+02
 0.15281677943E+02 0.14999860228E+02 0.14623572054E+02 0.14151167048E+02 0.13587665112E+02
 0.12945135394E+02 0.12240568909E+02 0.11496349794E+02 0.10735864326E+02 0.99821270757E+01
 0.92559483975E+01 0.85744636418E+01 0.79506510826E+01 0.73930545569E+01 0.69061776349E+01
 0.64908569250E+01 0.61450143772E+01 0.58642040684E+01 0.56423591614E+01 0.54722785480E+01
 0.53462416345E+01 0.52563706499E+01 0.51951079710E+01 0.51554656518E+01 0.51313807237E+01
 0.51178654359E+01 0.51112845507E+01 0.51093288898E+01 0.51112618636E+01 0.51178490918E+01
 0.51313575944E+01 0.51554460444E+01 0.51950764331E+01 0.52563527102E+01 0.53461960827E+01
 0.54722792997E+01 0.56423637940E+01 0.58642274649E+01 0.61450418005E+01 0.64908470599E+01
 0.67882584704E+01 0.73142428269E+01 0.79054565875E+01 0.85559979358E+01 0.92558725797E+01
 0.99914110265E+01 0.10744975793E+02 0.11496415470E+02 0.12223635701E+02 0.12905295695E+02