   2   2   1   0
  0.2044175E+02  0.3866823E-09  0.3866823E-09  0.3866823E-09  0.5000000E-15
  1.000000000000000E-004
  CAR 
 unknown system                          
     21.71398539     -7.52649841  301      5.63781107      1.00000000
     -7.526  0.0000E+00  0.0000E+00  0.0000E+00  0.0000E+00
     -7.429  0.0000E+00  0.0000E+00  0.0000E+00  0.0000E+00
     -7.332  0.0000E+00  0.0000E+00  0.0000E+00  0.0000E+00
     -7.234  0.0000E+00  0.0000E+00  0.0000E+00  0.0000E+00
     -7.137  0.0000E+00  0.0000E+00  0.0000E+00  0.0000E+00
     -7.039  0.0000E+00  0.0000E+00  0.0000E+00  0.0000E+00
     -6.942  0.0000E+00  0.0000E+00  0.0000E+00  0.0000E+00
     -6.844  0.0000E+00  0.0000E+00  0.0000E+00  0.0000E+00
     -6.747  0.0000E+00  0.0000E+00  0.0000E+00  0.0000E+00
     -6.649  0.0000E+00  0.0000E+00  0.0000E+00  0.0000E+00
     -6.552  0.0000E+00  0.0000E+00  0.0000E+00  0.0000E+00
     -6.454  0.0000E+00  0.0000E+00  0.0000E+00  0.0000E+00
     -6.357  0.0000E+00  0.0000E+00  0.0000E+00  0.0000E+00
     -6.259  0.0000E+00  0.0000E+00  0.0000E+00  0.0000E+00
     -6.162  0.2732E-02  0.2730E-02  0.3228E-04  0.3225E-04
     -6.064  0.3842E-01  0.3841E-01  0.1702E-02  0.1702E-02
     -5.967  0.7723E-01  0.7723E-01  0.8281E-02  0.8281E-02
     -5.870  0.8721E-01  0.8720E-01  0.1604E-01  0.1604E-01
     -5.772  0.1055E+00  0.1055E+00  0.2542E-01  0.2541E-01
     -5.675  0.1253E+00  0.1253E+00  0.3665E-01  0.3665E-01
     -5.577  0.1420E+00  0.1420E+00  0.4975E-01  0.4975E-01
     -5.480  0.1493E+00  0.1493E+00  0.6403E-01  0.6403E-01
     -5.382  0.1586E+00  0.1586E+00  0.7895E-01  0.7895E-01
     -5.285  0.1711E+00  0.1711E+00  0.9502E-01  0.9502E-01
     -5.187  0.1840E+00  0.1840E+00  0.1123E+00  0.1123E+00
     -5.090  0.1973E+00  0.1973E+00  0.1309E+00  0.1309E+00
     -4.992  0.2112E+00  0.2112E+00  0.1508E+00  0.1508E+00
     -4.895  0.2207E+00  0.2207E+00  0.1719E+00  0.1719E+00
     -4.797  0.2320E+00  0.2320E+00  0.1939E+00  0.1939E+00
     -4.700  0.2437E+00  0.2437E+00  0.2171E+00  0.2171E+00
     -4.602  0.2564E+00  0.2564E+00  0.2415E+00  0.2415E+00
     -4.505  0.2714E+00  0.2714E+00  0.2672E+00  0.2672E+00
     -4.408  0.2883E+00  0.2883E+00  0.2944E+00  0.2944E+00
     -4.310  0.3071E+00  0.3071E+00  0.3234E+00  0.3234E+00
     -4.213  0.3274E+00  0.3274E+00  0.3543E+00  0.3543E+00
     -4.115  0.3500E+00  0.3500E+00  0.3873E+00  0.3873E+00
     -4.018  0.3920E+00  0.3920E+00  0.4230E+00  0.4230E+00
     -3.920  0.5172E+00  0.5172E+00  0.4666E+00  0.4666E+00
     -3.823  0.4321E+00  0.4321E+00  0.5162E+00  0.5162E+00
     -3.725  0.4255E+00  0.4255E+00  0.5580E+00  0.5580E+00
     -3.628  0.4200E+00  0.4200E+00  0.5992E+00  0.5992E+00
     -3.530  0.4151E+00  0.4151E+00  0.6399E+00  0.6399E+00
     -3.433  0.3920E+00  0.3920E+00  0.6795E+00  0.6795E+00
     -3.335  0.3564E+00  0.3564E+00  0.7156E+00  0.7156E+00
     -3.238  0.3594E+00  0.3594E+00  0.7506E+00  0.7506E+00
     -3.140  0.3496E+00  0.3496E+00  0.7852E+00  0.7852E+00
     -3.043  0.3330E+00  0.3330E+00  0.8185E+00  0.8185E+00
     -2.945  0.3188E+00  0.3188E+00  0.8501E+00  0.8501E+00
     -2.848  0.3100E+00  0.3100E+00  0.8809E+00  0.8809E+00
     -2.751  0.2788E+00  0.2788E+00  0.9099E+00  0.9099E+00
     -2.653  0.2340E+00  0.2340E+00  0.9349E+00  0.9349E+00
     -2.556  0.1893E+00  0.1893E+00  0.9555E+00  0.9555E+00
     -2.458  0.1460E+00  0.1460E+00  0.9719E+00  0.9719E+00
     -2.361  0.1059E+00  0.1059E+00  0.9841E+00  0.9841E+00
     -2.263  0.6910E-01  0.6910E-01  0.9926E+00  0.9926E+00
     -2.166  0.3565E-01  0.3565E-01  0.9977E+00  0.9977E+00
     -2.068  0.1119E-01  0.1119E-01  0.9998E+00  0.9998E+00
     -1.971  0.2028E-01  0.2028E-01  0.1001E+01  0.1001E+01
     -1.873  0.5010E-01  0.5010E-01  0.1004E+01  0.1004E+01
     -1.776  0.8340E-01  0.8340E-01  0.1011E+01  0.1011E+01
     -1.678  0.1202E+00  0.1202E+00  0.1021E+01  0.1021E+01
     -1.581  0.1605E+00  0.1605E+00  0.1034E+01  0.1034E+01
     -1.483  0.2046E+00  0.2046E+00  0.1052E+01  0.1052E+01
     -1.386  0.2541E+00  0.2541E+00  0.1074E+01  0.1074E+01
     -1.289  0.3090E+00  0.3090E+00  0.1102E+01  0.1102E+01
     -1.191  0.4160E+00  0.4160E+00  0.1136E+01  0.1136E+01
     -1.094  0.5473E+00  0.5473E+00  0.1183E+01  0.1183E+01
     -0.996  0.8745E+00  0.8745E+00  0.1256E+01  0.1256E+01
     -0.899  0.6273E+00  0.6274E+00  0.1330E+01  0.1330E+01
     -0.801  0.4856E+00  0.4856E+00  0.1383E+01  0.1383E+01
     -0.704  0.4115E+00  0.4115E+00  0.1427E+01  0.1427E+01
     -0.606  0.3778E+00  0.3778E+00  0.1465E+01  0.1465E+01
     -0.509  0.3473E+00  0.3473E+00  0.1500E+01  0.1500E+01
     -0.411  0.3191E+00  0.3191E+00  0.1533E+01  0.1533E+01
     -0.314  0.2933E+00  0.2933E+00  0.1563E+01  0.1563E+01
     -0.216  0.2651E+00  0.2651E+00  0.1590E+01  0.1590E+01
     -0.119  0.2372E+00  0.2372E+00  0.1614E+01  0.1614E+01
     -0.021  0.2188E+00  0.2188E+00  0.1636E+01  0.1636E+01
      0.076  0.2046E+00  0.2046E+00  0.1657E+01  0.1657E+01
      0.173  0.1946E+00  0.1946E+00  0.1676E+01  0.1676E+01
      0.271  0.1871E+00  0.1871E+00  0.1695E+01  0.1695E+01
      0.368  0.1800E+00  0.1800E+00  0.1713E+01  0.1713E+01
      0.466  0.1729E+00  0.1729E+00  0.1730E+01  0.1730E+01
      0.563  0.1655E+00  0.1655E+00  0.1747E+01  0.1747E+01
      0.661  0.1576E+00  0.1576E+00  0.1762E+01  0.1762E+01
      0.758  0.1492E+00  0.1492E+00  0.1777E+01  0.1777E+01
      0.856  0.1411E+00  0.1411E+00  0.1791E+01  0.1791E+01
      0.953  0.1335E+00  0.1335E+00  0.1805E+01  0.1805E+01
      1.051  0.1251E+00  0.1251E+00  0.1817E+01  0.1817E+01
      1.148  0.1114E+00  0.1114E+00  0.1829E+01  0.1829E+01
      1.246  0.1019E+00  0.1019E+00  0.1839E+01  0.1839E+01
      1.343  0.9658E-01  0.9658E-01  0.1849E+01  0.1849E+01
      1.441  0.1057E+00  0.1057E+00  0.1858E+01  0.1858E+01
      1.538  0.3608E+00  0.3608E+00  0.1879E+01  0.1879E+01
      1.636  0.6908E+00  0.6907E+00  0.1930E+01  0.1930E+01
      1.733  0.6348E+00  0.6349E+00  0.1997E+01  0.1997E+01
      1.830  0.5710E+00  0.5710E+00  0.2056E+01  0.2056E+01
      1.928  0.5613E+00  0.5613E+00  0.2111E+01  0.2111E+01
      2.025  0.5635E+00  0.5635E+00  0.2165E+01  0.2165E+01
      2.123  0.5726E+00  0.5726E+00  0.2221E+01  0.2221E+01
      2.220  0.5712E+00  0.5712E+00  0.2277E+01  0.2277E+01
      2.318  0.5620E+00  0.5621E+00  0.2340E+01  0.2340E+01
      2.415  0.5535E+00  0.5535E+00  0.2394E+01  0.2394E+01
      2.513  0.5699E+00  0.5699E+00  0.2448E+01  0.2448E+01
      2.610  0.6009E+00  0.6009E+00  0.2505E+01  0.2505E+01
      2.708  0.6466E+00  0.6466E+00  0.2566E+01  0.2566E+01
      2.805  0.7089E+00  0.7089E+00  0.2632E+01  0.2632E+01
      2.903  0.7640E+00  0.7640E+00  0.2704E+01  0.2704E+01
      3.000  0.9377E+00  0.9377E+00  0.2787E+01  0.2787E+01
      3.098  0.7665E+00  0.7665E+00  0.2865E+01  0.2865E+01
      3.195  0.7541E+00  0.7541E+00  0.2939E+01  0.2939E+01
      3.292  0.7415E+00  0.7415E+00  0.3012E+01  0.3012E+01
      3.390  0.7259E+00  0.7259E+00  0.3084E+01  0.3084E+01
      3.487  0.7081E+00  0.7081E+00  0.3154E+01  0.3154E+01
      3.585  0.7173E+00  0.7173E+00  0.3223E+01  0.3223E+01
      3.682  0.7160E+00  0.7160E+00  0.3293E+01  0.3293E+01
      3.780  0.7041E+00  0.7041E+00  0.3362E+01  0.3362E+01
      3.877  0.6864E+00  0.6864E+00  0.3430E+01  0.3430E+01
      3.975  0.6649E+00  0.6649E+00  0.3496E+01  0.3496E+01
      4.072  0.6380E+00  0.6380E+00  0.3560E+01  0.3559E+01
      4.170  0.6470E+00  0.6469E+00  0.3622E+01  0.3622E+01
      4.267  0.6402E+00  0.6402E+00  0.3685E+01  0.3685E+01
      4.365  0.5943E+00  0.5943E+00  0.3746E+01  0.3746E+01
      4.462  0.4634E+00  0.4635E+00  0.3798E+01  0.3798E+01
      4.560  0.3689E+00  0.3689E+00  0.3838E+01  0.3838E+01
      4.657  0.3186E+00  0.3187E+00  0.3871E+01  0.3871E+01
      4.755  0.2674E+00  0.2674E+00  0.3900E+01  0.3900E+01
      4.852  0.2152E+00  0.2152E+00  0.3923E+01  0.3923E+01
      4.949  0.1792E+00  0.1792E+00  0.3942E+01  0.3942E+01
      5.047  0.1517E+00  0.1517E+00  0.3959E+01  0.3959E+01
      5.144  0.1302E+00  0.1302E+00  0.3972E+01  0.3972E+01
      5.242  0.1149E+00  0.1149E+00  0.3984E+01  0.3984E+01
      5.339  0.5881E-01  0.5881E-01  0.3995E+01  0.3995E+01
      5.437  0.2493E-01  0.2493E-01  0.3998E+01  0.3998E+01
      5.534  0.5369E-02  0.5369E-02  0.4000E+01  0.4000E+01
      5.632  0.0000E+00  0.0000E+00  0.4000E+01  0.4000E+01
      5.729  0.0000E+00  0.0000E+00  0.4000E+01  0.4000E+01
      5.827  0.0000E+00  0.0000E+00  0.4000E+01  0.4000E+01
      5.924  0.0000E+00  0.0000E+00  0.4000E+01  0.4000E+01
      6.022  0.0000E+00  0.0000E+00  0.4000E+01  0.4000E+01
      6.119  0.0000E+00  0.0000E+00  0.4000E+01  0.4000E+01
      6.217  0.0000E+00  0.0000E+00  0.4000E+01  0.4000E+01
      6.314  0.7313E-02  0.7277E-02  0.4000E+01  0.4000E+01
      6.411  0.6076E-01  0.6071E-01  0.4003E+01  0.4003E+01
      6.509  0.8488E-01  0.8488E-01  0.4011E+01  0.4011E+01
      6.606  0.9721E-01  0.9719E-01  0.4019E+01  0.4019E+01
      6.704  0.1274E+00  0.1274E+00  0.4030E+01  0.4030E+01
      6.801  0.1610E+00  0.1610E+00  0.4044E+01  0.4044E+01
      6.899  0.1928E+00  0.1928E+00  0.4061E+01  0.4061E+01
      6.996  0.2224E+00  0.2224E+00  0.4082E+01  0.4082E+01
      7.094  0.2556E+00  0.2555E+00  0.4105E+01  0.4105E+01
      7.191  0.2955E+00  0.2955E+00  0.4132E+01  0.4132E+01
      7.289  0.3505E+00  0.3505E+00  0.4163E+01  0.4163E+01
      7.386  0.4172E+00  0.4171E+00  0.4200E+01  0.4200E+01
      7.484  0.4953E+00  0.4953E+00  0.4245E+01  0.4245E+01
      7.581  0.5883E+00  0.5883E+00  0.4297E+01  0.4297E+01
      7.679  0.7165E+00  0.7165E+00  0.4361E+01  0.4361E+01
      7.776  0.8903E+00  0.8903E+00  0.4439E+01  0.4439E+01
      7.873  0.9935E+00  0.9935E+00  0.4532E+01  0.4532E+01
      7.971  0.1020E+01  0.1020E+01  0.4630E+01  0.4630E+01
      8.068  0.1048E+01  0.1048E+01  0.4730E+01  0.4730E+01
      8.166  0.1070E+01  0.1071E+01  0.4835E+01  0.4835E+01
      8.263  0.9017E+00  0.9018E+00  0.4933E+01  0.4933E+01
      8.361  0.6545E+00  0.6546E+00  0.5008E+01  0.5008E+01
      8.458  0.4935E+00  0.4935E+00  0.5063E+01  0.5063E+01
      8.556  0.2655E+00  0.2655E+00  0.5098E+01  0.5098E+01
      8.653  0.2690E+00  0.2690E+00  0.5123E+01  0.5123E+01
      8.751  0.3382E+00  0.3382E+00  0.5152E+01  0.5152E+01
      8.848  0.4267E+00  0.4266E+00  0.5189E+01  0.5189E+01
      8.946  0.5663E+00  0.5662E+00  0.5237E+01  0.5237E+01
      9.043  0.8918E+00  0.8920E+00  0.5305E+01  0.5304E+01
      9.141  0.1602E+01  0.1602E+01  0.5426E+01  0.5426E+01
      9.238  0.1634E+01  0.1634E+01  0.5603E+01  0.5603E+01
      9.336  0.8813E+00  0.8812E+00  0.5714E+01  0.5714E+01
      9.433  0.7190E+00  0.7190E+00  0.5789E+01  0.5789E+01
      9.530  0.7070E+00  0.7069E+00  0.5859E+01  0.5859E+01
      9.628  0.6768E+00  0.6768E+00  0.5927E+01  0.5927E+01
      9.725  0.6384E+00  0.6384E+00  0.5991E+01  0.5991E+01
      9.823  0.6487E+00  0.6486E+00  0.6053E+01  0.6053E+01
      9.920  0.9134E+00  0.9140E+00  0.6128E+01  0.6128E+01
     10.018  0.6146E+00  0.6148E+00  0.6201E+01  0.6201E+01
     10.115  0.4797E+00  0.4797E+00  0.6253E+01  0.6253E+01
     10.213  0.4654E+00  0.4654E+00  0.6299E+01  0.6299E+01
     10.310  0.4511E+00  0.4511E+00  0.6343E+01  0.6343E+01
     10.408  0.4337E+00  0.4337E+00  0.6387E+01  0.6387E+01
     10.505  0.4185E+00  0.4185E+00  0.6428E+01  0.6428E+01
     10.603  0.4356E+00  0.4355E+00  0.6469E+01  0.6469E+01
     10.700  0.6566E+00  0.6568E+00  0.6522E+01  0.6522E+01
     10.798  0.9188E+00  0.9189E+00  0.6599E+01  0.6599E+01
     10.895  0.7664E+00  0.7665E+00  0.6677E+01  0.6677E+01
     10.992  0.7206E+00  0.7206E+00  0.6750E+01  0.6750E+01
     11.090  0.6675E+00  0.6675E+00  0.6817E+01  0.6817E+01
     11.187  0.6251E+00  0.6250E+00  0.6881E+01  0.6881E+01
     11.285  0.5513E+00  0.5512E+00  0.6938E+01  0.6938E+01
     11.382  0.4965E+00  0.4965E+00  0.6989E+01  0.6989E+01
     11.480  0.5078E+00  0.5077E+00  0.7037E+01  0.7037E+01
     11.577  0.4801E+00  0.4801E+00  0.7086E+01  0.7086E+01
     11.675  0.4469E+00  0.4469E+00  0.7131E+01  0.7131E+01
     11.772  0.4147E+00  0.4147E+00  0.7173E+01  0.7173E+01
     11.870  0.3992E+00  0.3991E+00  0.7212E+01  0.7212E+01
     11.967  0.4113E+00  0.4113E+00  0.7252E+01  0.7252E+01
     12.065  0.4476E+00  0.4477E+00  0.7293E+01  0.7293E+01
     12.162  0.5251E+00  0.5251E+00  0.7341E+01  0.7341E+01
     12.260  0.5736E+00  0.5736E+00  0.7395E+01  0.7395E+01
     12.357  0.6176E+00  0.6176E+00  0.7453E+01  0.7453E+01
     12.454  0.6570E+00  0.6570E+00  0.7515E+01  0.7515E+01
     12.552  0.6973E+00  0.6972E+00  0.7581E+01  0.7581E+01
     12.649  0.7634E+00  0.7634E+00  0.7652E+01  0.7652E+01
     12.747  0.7541E+00  0.7541E+00  0.7727E+01  0.7727E+01
     12.844  0.7090E+00  0.7089E+00  0.7798E+01  0.7798E+01
     12.942  0.6286E+00  0.6286E+00  0.7864E+01  0.7864E+01
     13.039  0.6162E+00  0.6162E+00  0.7923E+01  0.7923E+01
     13.137  0.6368E+00  0.6368E+00  0.7984E+01  0.7984E+01
     13.234  0.6573E+00  0.6573E+00  0.8047E+01  0.8047E+01
     13.332  0.6770E+00  0.6771E+00  0.8112E+01  0.8112E+01
     13.429  0.6581E+00  0.6588E+00  0.8178E+01  0.8178E+01
     13.527  0.7308E+00  0.7309E+00  0.8245E+01  0.8245E+01
     13.624  0.7364E+00  0.7364E+00  0.8316E+01  0.8316E+01
     13.722  0.7054E+00  0.7055E+00  0.8387E+01  0.8387E+01
     13.819  0.5793E+00  0.5793E+00  0.8450E+01  0.8450E+01
     13.917  0.5268E+00  0.5268E+00  0.8503E+01  0.8503E+01
     14.014  0.5244E+00  0.5243E+00  0.8554E+01  0.8554E+01
     14.111  0.5292E+00  0.5291E+00  0.8605E+01  0.8605E+01
     14.209  0.5384E+00  0.5383E+00  0.8657E+01  0.8657E+01
     14.306  0.5477E+00  0.5477E+00  0.8710E+01  0.8710E+01
     14.404  0.5570E+00  0.5570E+00  0.8764E+01  0.8764E+01
     14.501  0.5697E+00  0.5696E+00  0.8819E+01  0.8819E+01
     14.599  0.5814E+00  0.5813E+00  0.8875E+01  0.8875E+01
     14.696  0.5960E+00  0.5959E+00  0.8932E+01  0.8932E+01
     14.794  0.6212E+00  0.6210E+00  0.8992E+01  0.8992E+01
     14.891  0.6664E+00  0.6662E+00  0.9054E+01  0.9054E+01
     14.989  0.7267E+00  0.7265E+00  0.9122E+01  0.9122E+01
     15.086  0.7924E+00  0.7922E+00  0.9196E+01  0.9196E+01
     15.184  0.8597E+00  0.8597E+00  0.9277E+01  0.9277E+01
     15.281  0.9025E+00  0.9027E+00  0.9363E+01  0.9363E+01
     15.379  0.9059E+00  0.9062E+00  0.9452E+01  0.9451E+01
     15.476  0.8572E+00  0.8575E+00  0.9537E+01  0.9537E+01
     15.573  0.8473E+00  0.8474E+00  0.9620E+01  0.9620E+01
     15.671  0.9357E+00  0.9355E+00  0.9708E+01  0.9708E+01
     15.768  0.7761E+00  0.7762E+00  0.9789E+01  0.9789E+01
     15.866  0.7673E+00  0.7674E+00  0.9865E+01  0.9865E+01
     15.963  0.7672E+00  0.7673E+00  0.9939E+01  0.9939E+01
     16.061  0.7282E+00  0.7283E+00  0.1001E+02  0.1001E+02
     16.158  0.6709E+00  0.6710E+00  0.1008E+02  0.1008E+02
     16.256  0.6885E+00  0.6887E+00  0.1015E+02  0.1015E+02
     16.353  0.5652E+00  0.5650E+00  0.1021E+02  0.1021E+02
     16.451  0.3380E+00  0.3378E+00  0.1025E+02  0.1025E+02
     16.548  0.2322E+00  0.2322E+00  0.1028E+02  0.1028E+02
     16.646  0.2232E+00  0.2231E+00  0.1030E+02  0.1030E+02
     16.743  0.2543E+00  0.2543E+00  0.1032E+02  0.1032E+02
     16.841  0.3562E+00  0.3561E+00  0.1035E+02  0.1035E+02
     16.938  0.4358E+00  0.4355E+00  0.1039E+02  0.1039E+02
     17.036  0.4571E+00  0.4570E+00  0.1044E+02  0.1044E+02
     17.133  0.4437E+00  0.4438E+00  0.1048E+02  0.1048E+02
     17.230  0.4428E+00  0.4426E+00  0.1052E+02  0.1052E+02
     17.328  0.4779E+00  0.4779E+00  0.1057E+02  0.1057E+02
     17.425  0.5210E+00  0.5210E+00  0.1062E+02  0.1062E+02
     17.523  0.5703E+00  0.5703E+00  0.1067E+02  0.1067E+02
     17.620  0.5990E+00  0.5990E+00  0.1073E+02  0.1073E+02
     17.718  0.6455E+00  0.6455E+00  0.1079E+02  0.1079E+02
     17.815  0.7196E+00  0.7196E+00  0.1085E+02  0.1085E+02
     17.913  0.8347E+00  0.8342E+00  0.1093E+02  0.1093E+02
     18.010  0.9183E+00  0.9182E+00  0.1101E+02  0.1101E+02
     18.108  0.9066E+00  0.9066E+00  0.1110E+02  0.1110E+02
     18.205  0.9081E+00  0.9378E+00  0.1119E+02  0.1119E+02
     18.303  0.9404E+00  0.9292E+00  0.1129E+02  0.1129E+02
     18.400  0.8588E+00  0.8580E+00  0.1137E+02  0.1137E+02
     18.498  0.8257E+00  0.8257E+00  0.1146E+02  0.1146E+02
     18.595  0.8285E+00  0.8284E+00  0.1154E+02  0.1154E+02
     18.692  0.6673E+00  0.6673E+00  0.1161E+02  0.1161E+02
     18.790  0.4086E+00  0.4087E+00  0.1166E+02  0.1166E+02
     18.887  0.3589E+00  0.3588E+00  0.1170E+02  0.1170E+02
     18.985  0.3306E+00  0.3306E+00  0.1173E+02  0.1173E+02
     19.082  0.3070E+00  0.3069E+00  0.1176E+02  0.1176E+02
     19.180  0.2880E+00  0.2879E+00  0.1179E+02  0.1179E+02
     19.277  0.2734E+00  0.2734E+00  0.1182E+02  0.1182E+02
     19.375  0.2607E+00  0.2606E+00  0.1185E+02  0.1185E+02
     19.472  0.2491E+00  0.2491E+00  0.1187E+02  0.1187E+02
     19.570  0.2387E+00  0.2386E+00  0.1190E+02  0.1190E+02
     19.667  0.2290E+00  0.2290E+00  0.1192E+02  0.1192E+02
     19.765  0.2189E+00  0.2190E+00  0.1194E+02  0.1194E+02
     19.862  0.1321E+00  0.1322E+00  0.1196E+02  0.1196E+02
     19.960  0.1209E+00  0.1209E+00  0.1197E+02  0.1197E+02
     20.057  0.1062E+00  0.1062E+00  0.1198E+02  0.1198E+02
     20.154  0.8797E-01  0.8804E-01  0.1199E+02  0.1199E+02
     20.252  0.6557E-01  0.6563E-01  0.1200E+02  0.1200E+02
     20.349  0.9434E-02  0.9473E-02  0.1200E+02  0.1200E+02
     20.447  0.0000E+00  0.0000E+00  0.1200E+02  0.1200E+02
     20.544  0.0000E+00  0.0000E+00  0.1200E+02  0.1200E+02
     20.642  0.0000E+00  0.0000E+00  0.1200E+02  0.1200E+02
     20.739  0.0000E+00  0.0000E+00  0.1200E+02  0.1200E+02
     20.837  0.0000E+00  0.0000E+00  0.1200E+02  0.1200E+02
     20.934  0.0000E+00  0.0000E+00  0.1200E+02  0.1200E+02
     21.032  0.0000E+00  0.0000E+00  0.1200E+02  0.1200E+02
     21.129  0.0000E+00  0.0000E+00  0.1200E+02  0.1200E+02
     21.227  0.0000E+00  0.0000E+00  0.1200E+02  0.1200E+02
     21.324  0.0000E+00  0.0000E+00  0.1200E+02  0.1200E+02
     21.422  0.0000E+00  0.0000E+00  0.1200E+02  0.1200E+02
     21.519  0.0000E+00  0.0000E+00  0.1200E+02  0.1200E+02
     21.617  0.0000E+00  0.0000E+00  0.1200E+02  0.1200E+02
     21.714  0.0000E+00  0.0000E+00  0.1200E+02  0.1200E+02
     21.71398539     -7.52649841  301      5.63781107      1.00000000
     -7.526  0.0000E+00  0.0000E+00  0.0000E+00  0.0000E+00  0.0000E+00  0.0000E+00  0.0000E+00  0.0000E+00  0.0000E+00  0.0000E+00  0.0000E+00  0.0000E+00  0.0000E+00  0.0000E+00  0.0000E+00  0.0000E+00  0.0000E+00  0.0000E+00
     -7.429  0.0000E+00  0.0000E+00  0.0000E+00  0.0000E+00  0.0000E+00  0.0000E+00  0.0000E+00  0.0000E+00  0.0000E+00  0.0000E+00  0.0000E+00  0.0000E+00  0.0000E+00  0.0000E+00  0.0000E+00  0.0000E+00  0.0000E+00  0.0000E+00
     -7.332  0.0000E+00  0.0000E+00  0.0000E+00  0.0000E+00  0.0000E+00  0.0000E+00  0.0000E+00  0.0000E+00  0.0000E+00  0.0000E+00  0.0000E+00  0.0000E+00  0.0000E+00  0.0000E+00  0.0000E+00  0.0000E+00  0.0000E+00  0.0000E+00
     -7.234  0.0000E+00  0.0000E+00  0.0000E+00  0.0000E+00  0.0000E+00  0.0000E+00  0.0000E+00  0.0000E+00  0.0000E+00  0.0000E+00  0.0000E+00  0.0000E+00  0.0000E+00  0.0000E+00  0.0000E+00  0.0000E+00  0.0000E+00  0.0000E+00
     -7.137  0.0000E+00  0.0000E+00  0.0000E+00  0.0000E+00  0.0000E+00  0.0000E+00  0.0000E+00  0.0000E+00  0.0000E+00  0.0000E+00  0.0000E+00  0.0000E+00  0.0000E+00  0.0000E+00  0.0000E+00  0.0000E+00  0.0000E+00  0.0000E+00
     -7.039  0.0000E+00  0.0000E+00  0.0000E+00  0.0000E+00  0.0000E+00  0.0000E+00  0.0000E+00  0.0000E+00  0.0000E+00  0.0000E+00  0.0000E+00  0.0000E+00  0.0000E+00  0.0000E+00  0.0000E+00  0.0000E+00  0.0000E+00  0.0000E+00
     -6.942  0.0000E+00  0.0000E+00  0.0000E+00  0.0000E+00  0.0000E+00  0.0000E+00  0.0000E+00  0.0000E+00  0.0000E+00  0.0000E+00  0.0000E+00  0.0000E+00  0.0000E+00  0.0000E+00  0.0000E+00  0.0000E+00  0.0000E+00  0.0000E+00
     -6.844  0.0000E+00  0.0000E+00  0.0000E+00  0.0000E+00  0.0000E+00  0.0000E+00  0.0000E+00  0.0000E+00  0.0000E+00  0.0000E+00  0.0000E+00  0.0000E+00  0.0000E+00  0.0000E+00  0.0000E+00  0.0000E+00  0.0000E+00  0.0000E+00
     -6.747  0.0000E+00  0.0000E+00  0.0000E+00  0.0000E+00  0.0000E+00  0.0000E+00  0.0000E+00  0.0000E+00  0.0000E+00  0.0000E+00  0.0000E+00  0.0000E+00  0.0000E+00  0.0000E+00  0.0000E+00  0.0000E+00  0.0000E+00  0.0000E+00
     -6.649  0.0000E+00  0.0000E+00  0.0000E+00  0.0000E+00  0.0000E+00  0.0000E+00  0.0000E+00  0.0000E+00  0.0000E+00  0.0000E+00  0.0000E+00  0.0000E+00  0.0000E+00  0.0000E+00  0.0000E+00  0.0000E+00  0.0000E+00  0.0000E+00
     -6.552  0.0000E+00  0.0000E+00  0.0000E+00  0.0000E+00  0.0000E+00  0.0000E+00  0.0000E+00  0.0000E+00  0.0000E+00  0.0000E+00  0.0000E+00  0.0000E+00  0.0000E+00  0.0000E+00  0.0000E+00  0.0000E+00  0.0000E+00  0.0000E+00
     -6.454  0.0000E+00  0.0000E+00  0.0000E+00  0.0000E+00  0.0000E+00  0.0000E+00  0.0000E+00  0.0000E+00  0.0000E+00  0.0000E+00  0.0000E+00  0.0000E+00  0.0000E+00  0.0000E+00  0.0000E+00  0.0000E+00  0.0000E+00  0.0000E+00
     -6.357  0.0000E+00  0.0000E+00  0.0000E+00  0.0000E+00  0.0000E+00  0.0000E+00  0.0000E+00  0.0000E+00  0.0000E+00  0.0000E+00  0.0000E+00  0.0000E+00  0.0000E+00  0.0000E+00  0.0000E+00  0.0000E+00  0.0000E+00  0.0000E+00
     -6.259  0.0000E+00  0.0000E+00  0.0000E+00  0.0000E+00  0.0000E+00  0.0000E+00  0.0000E+00  0.0000E+00  0.0000E+00  0.0000E+00  0.0000E+00  0.0000E+00  0.0000E+00  0.0000E+00  0.0000E+00  0.0000E+00  0.0000E+00  0.0000E+00
     -6.162  0.5768E-03  0.5764E-03  0.9722E-06  0.9717E-06  0.2954E-05  0.2952E-05  0.9722E-06  0.9717E-06  0.0000E+00  0.0000E+00  0.0000E+00  0.0000E+00  0.0000E+00  0.0000E+00  0.0000E+00  0.0000E+00  0.0000E+00  0.0000E+00
     -6.064  0.8111E-02  0.8110E-02  0.1367E-04  0.1367E-04  0.4154E-04  0.4153E-04  0.1367E-04  0.1367E-04  0.0000E+00  0.0000E+00  0.0000E+00  0.0000E+00  0.0000E+00  0.0000E+00  0.0000E+00  0.0000E+00  0.0000E+00  0.0000E+00
     -5.967  0.1627E-01  0.1628E-01  0.6188E-04  0.6188E-04  0.9007E-04  0.9007E-04  0.6188E-04  0.6188E-04  0.0000E+00  0.0000E+00  0.0000E+00  0.0000E+00  0.0000E+00  0.0000E+00  0.0000E+00  0.0000E+00  0.0000E+00  0.0000E+00
     -5.870  0.1833E-01  0.1833E-01  0.9454E-04  0.9454E-04  0.1745E-03  0.1745E-03  0.9454E-04  0.9454E-04  0.0000E+00  0.0000E+00  0.0000E+00  0.0000E+00  0.0000E+00  0.0000E+00  0.0000E+00  0.0000E+00  0.0000E+00  0.0000E+00
     -5.772  0.2214E-01  0.2214E-01  0.1212E-03  0.1212E-03  0.2783E-03  0.2783E-03  0.1212E-03  0.1212E-03  0.0000E+00  0.0000E+00  0.0000E+00  0.0000E+00  0.0000E+00  0.0000E+00  0.0000E+00  0.0000E+00  0.0000E+00  0.0000E+00
     -5.675  0.2627E-01  0.2627E-01  0.1535E-03  0.1535E-03  0.3860E-03  0.3860E-03  0.1535E-03  0.1535E-03  0.0000E+00  0.0000E+00  0.0000E+00  0.0000E+00  0.0000E+00  0.0000E+00  0.0000E+00  0.0000E+00  0.0000E+00  0.0000E+00
     -5.577  0.2974E-01  0.2974E-01  0.2025E-03  0.2025E-03  0.4996E-03  0.4996E-03  0.1980E-03  0.1980E-03  0.0000E+00  0.0000E+00  0.0000E+00  0.0000E+00  0.0000E+00  0.0000E+00  0.0000E+00  0.0000E+00  0.0000E+00  0.0000E+00
     -5.480  0.3120E-01  0.3120E-01  0.2837E-03  0.2837E-03  0.6218E-03  0.6217E-03  0.2641E-03  0.2641E-03  0.0000E+00  0.0000E+00  0.0000E+00  0.0000E+00  0.0000E+00  0.0000E+00  0.0000E+00  0.0000E+00  0.0000E+00  0.0000E+00
     -5.382  0.3309E-01  0.3309E-01  0.3482E-03  0.3482E-03  0.7668E-03  0.7667E-03  0.3144E-03  0.3144E-03  0.0000E+00  0.0000E+00  0.0000E+00  0.0000E+00  0.0000E+00  0.0000E+00  0.0000E+00  0.0000E+00  0.0000E+00  0.0000E+00
     -5.285  0.3567E-01  0.3567E-01  0.3900E-03  0.3900E-03  0.9432E-03  0.9432E-03  0.3449E-03  0.3449E-03  0.0000E+00  0.0000E+00  0.0000E+00  0.0000E+00  0.0000E+00  0.0000E+00  0.0000E+00  0.0000E+00  0.0000E+00  0.0000E+00
     -5.187  0.3834E-01  0.3834E-01  0.4328E-03  0.4328E-03  0.1125E-02  0.1125E-02  0.3787E-03  0.3787E-03  0.0000E+00  0.0000E+00  0.0000E+00  0.0000E+00  0.0000E+00  0.0000E+00  0.0000E+00  0.0000E+00  0.0000E+00  0.0000E+00
     -5.090  0.4109E-01  0.4109E-01  0.4771E-03  0.4771E-03  0.1311E-02  0.1311E-02  0.4159E-03  0.4159E-03  0.0000E+00  0.0000E+00  0.0000E+00  0.0000E+00  0.0000E+00  0.0000E+00  0.0000E+00  0.0000E+00  0.0000E+00  0.0000E+00
     -4.992  0.4395E-01  0.4395E-01  0.5245E-03  0.5245E-03  0.1498E-02  0.1498E-02  0.4569E-03  0.4569E-03  0.0000E+00  0.0000E+00  0.0000E+00  0.0000E+00  0.0000E+00  0.0000E+00  0.0000E+00  0.0000E+00  0.0000E+00  0.0000E+00
     -4.895  0.4591E-01  0.4591E-01  0.6104E-03  0.6104E-03  0.1709E-02  0.1709E-02  0.5333E-03  0.5333E-03  0.0000E+00  0.0000E+00  0.0000E+00  0.0000E+00  0.0000E+00  0.0000E+00  0.0000E+00  0.0000E+00  0.0000E+00  0.0000E+00
     -4.797  0.4826E-01  0.4826E-01  0.6878E-03  0.6878E-03  0.1942E-02  0.1942E-02  0.5938E-03  0.5938E-03  0.0000E+00  0.0000E+00  0.0000E+00  0.0000E+00  0.0000E+00  0.0000E+00  0.0000E+00  0.0000E+00  0.0000E+00  0.0000E+00
     -4.700  0.5073E-01  0.5073E-01  0.7737E-03  0.7737E-03  0.2170E-02  0.2170E-02  0.6662E-03  0.6662E-03  0.0000E+00  0.0000E+00  0.0000E+00  0.0000E+00  0.0000E+00  0.0000E+00  0.0000E+00  0.0000E+00  0.0000E+00  0.0000E+00
     -4.602  0.5342E-01  0.5342E-01  0.8609E-03  0.8609E-03  0.2406E-02  0.2406E-02  0.7439E-03  0.7439E-03  0.0000E+00  0.0000E+00  0.0000E+00  0.0000E+00  0.0000E+00  0.0000E+00  0.0000E+00  0.0000E+00  0.0000E+00  0.0000E+00
     -4.505  0.5659E-01  0.5659E-01  0.9299E-03  0.9299E-03  0.2686E-02  0.2686E-02  0.8087E-03  0.8087E-03  0.0000E+00  0.0000E+00  0.0000E+00  0.0000E+00  0.0000E+00  0.0000E+00  0.0000E+00  0.0000E+00  0.0000E+00  0.0000E+00
     -4.408  0.6021E-01  0.6021E-01  0.9973E-03  0.9973E-03  0.2984E-02  0.2984E-02  0.8767E-03  0.8767E-03  0.0000E+00  0.0000E+00  0.0000E+00  0.0000E+00  0.0000E+00  0.0000E+00  0.0000E+00  0.0000E+00  0.0000E+00  0.0000E+00
     -4.310  0.6423E-01  0.6423E-01  0.1072E-02  0.1072E-02  0.3285E-02  0.3285E-02  0.9528E-03  0.9528E-03  0.0000E+00  0.0000E+00  0.0000E+00  0.0000E+00  0.0000E+00  0.0000E+00  0.0000E+00  0.0000E+00  0.0000E+00  0.0000E+00
     -4.213  0.6860E-01  0.6860E-01  0.1157E-02  0.1157E-02  0.3594E-02  0.3594E-02  0.1037E-02  0.1037E-02  0.0000E+00  0.0000E+00  0.0000E+00  0.0000E+00  0.0000E+00  0.0000E+00  0.0000E+00  0.0000E+00  0.0000E+00  0.0000E+00
     -4.115  0.7350E-01  0.7350E-01  0.1263E-02  0.1263E-02  0.3940E-02  0.3940E-02  0.1166E-02  0.1166E-02  0.0000E+00  0.0000E+00  0.0000E+00  0.0000E+00  0.0000E+00  0.0000E+00  0.0000E+00  0.0000E+00  0.0000E+00  0.0000E+00
     -4.018  0.8269E-01  0.8269E-01  0.1474E-02  0.1474E-02  0.4457E-02  0.4457E-02  0.1503E-02  0.1503E-02  0.0000E+00  0.0000E+00  0.0000E+00  0.0000E+00  0.0000E+00  0.0000E+00  0.0000E+00  0.0000E+00  0.0000E+00  0.0000E+00
     -3.920  0.1101E+00  0.1101E+00  0.2026E-02  0.2026E-02  0.5534E-02  0.5534E-02  0.2263E-02  0.2263E-02  0.0000E+00  0.0000E+00  0.0000E+00  0.0000E+00  0.0000E+00  0.0000E+00  0.0000E+00  0.0000E+00  0.0000E+00  0.0000E+00
     -3.823  0.9143E-01  0.9144E-01  0.1589E-02  0.1589E-02  0.5296E-02  0.5296E-02  0.2046E-02  0.2046E-02  0.0000E+00  0.0000E+00  0.0000E+00  0.0000E+00  0.0000E+00  0.0000E+00  0.0000E+00  0.0000E+00  0.0000E+00  0.0000E+00
     -3.725  0.8997E-01  0.8997E-01  0.1539E-02  0.1539E-02  0.5462E-02  0.5461E-02  0.2112E-02  0.2112E-02  0.0000E+00  0.0000E+00  0.0000E+00  0.0000E+00  0.0000E+00  0.0000E+00  0.0000E+00  0.0000E+00  0.0000E+00  0.0000E+00
     -3.628  0.8878E-01  0.8878E-01  0.1487E-02  0.1487E-02  0.5640E-02  0.5640E-02  0.2183E-02  0.2183E-02  0.0000E+00  0.0000E+00  0.0000E+00  0.0000E+00  0.0000E+00  0.0000E+00  0.0000E+00  0.0000E+00  0.0000E+00  0.0000E+00
     -3.530  0.8779E-01  0.8779E-01  0.1433E-02  0.1433E-02  0.5805E-02  0.5805E-02  0.2249E-02  0.2249E-02  0.0000E+00  0.0000E+00  0.0000E+00  0.0000E+00  0.0000E+00  0.0000E+00  0.0000E+00  0.0000E+00  0.0000E+00  0.0000E+00
     -3.433  0.8293E-01  0.8293E-01  0.1283E-02  0.1283E-02  0.5821E-02  0.5821E-02  0.2212E-02  0.2212E-02  0.0000E+00  0.0000E+00  0.0000E+00  0.0000E+00  0.0000E+00  0.0000E+00  0.0000E+00  0.0000E+00  0.0000E+00  0.0000E+00
     -3.335  0.7548E-01  0.7548E-01  0.1068E-02  0.1068E-02  0.5737E-02  0.5737E-02  0.2126E-02  0.2126E-02  0.0000E+00  0.0000E+00  0.0000E+00  0.0000E+00  0.0000E+00  0.0000E+00  0.0000E+00  0.0000E+00  0.0000E+00  0.0000E+00
     -3.238  0.7658E-01  0.7658E-01  0.1035E-02  0.1035E-02  0.5996E-02  0.5996E-02  0.2248E-02  0.2248E-02  0.0000E+00  0.0000E+00  0.0000E+00  0.0000E+00  0.0000E+00  0.0000E+00  0.0000E+00  0.0000E+00  0.0000E+00  0.0000E+00
     -3.140  0.7501E-01  0.7501E-01  0.9655E-03  0.9655E-03  0.6017E-02  0.6017E-02  0.2221E-02  0.2221E-02  0.0000E+00  0.0000E+00  0.0000E+00  0.0000E+00  0.0000E+00  0.0000E+00  0.0000E+00  0.0000E+00  0.0000E+00  0.0000E+00
     -3.043  0.7241E-01  0.7241E-01  0.8720E-03  0.8720E-03  0.5867E-02  0.5867E-02  0.2099E-02  0.2099E-02  0.0000E+00  0.0000E+00  0.0000E+00  0.0000E+00  0.0000E+00  0.0000E+00  0.0000E+00  0.0000E+00  0.0000E+00  0.0000E+00
     -2.945  0.7126E-01  0.7126E-01  0.7706E-03  0.7706E-03  0.5678E-02  0.5678E-02  0.1936E-02  0.1936E-02  0.0000E+00  0.0000E+00  0.0000E+00  0.0000E+00  0.0000E+00  0.0000E+00  0.0000E+00  0.0000E+00  0.0000E+00  0.0000E+00
     -2.848  0.7259E-01  0.7259E-01  0.6578E-03  0.6578E-03  0.5495E-02  0.5495E-02  0.1725E-02  0.1725E-02  0.0000E+00  0.0000E+00  0.0000E+00  0.0000E+00  0.0000E+00  0.0000E+00  0.0000E+00  0.0000E+00  0.0000E+00  0.0000E+00
     -2.751  0.6907E-01  0.6907E-01  0.4908E-03  0.4908E-03  0.4816E-02  0.4816E-02  0.1350E-02  0.1350E-02  0.0000E+00  0.0000E+00  0.0000E+00  0.0000E+00  0.0000E+00  0.0000E+00  0.0000E+00  0.0000E+00  0.0000E+00  0.0000E+00
     -2.653  0.6077E-01  0.6077E-01  0.3345E-03  0.3345E-03  0.3934E-02  0.3934E-02  0.9563E-03  0.9563E-03  0.0000E+00  0.0000E+00  0.0000E+00  0.0000E+00  0.0000E+00  0.0000E+00  0.0000E+00  0.0000E+00  0.0000E+00  0.0000E+00