    2    2    1    2
  0.2044175E+02  0.3866823E-09  0.3866823E-09  0.3866823E-09  0.5000000E-15
  1.000000000000000E-004
  CAR 
 unknown system                          
      8     29     12
 
  0.0000000E+00  0.0000000E+00  0.0000000E+00  0.1953125E-02
    1       -6.197386     -6.197375
    2        5.618655      5.618653
    3        5.618655      5.618653
    4        5.618655      5.618653
    5        8.175133      8.175206
    6        8.175133      8.175206
    7        8.175133      8.175206
    8        8.753792      8.753816
    9       13.327209     13.327394
   10       13.327209     13.327394
   11       13.495243     13.495679
   12       16.801099     16.800117
 
  0.1250000E+00  0.0000000E+00  0.0000000E+00  0.1562500E-01
    1       -5.996892     -5.996881
    2        4.027774      4.027779
    3        5.336187      5.336199
    4        5.336187      5.336199
    5        8.061796      8.061851
    6        8.590688      8.590753
    7        8.590688      8.590753
    8       10.152367     10.152430
    9       12.854336     12.854294
   10       12.854336     12.854294
   11       14.271187     14.271576
   12       16.246761     16.246582
 
  0.2500000E+00  0.0000000E+00  0.0000000E+00  0.1562500E-01
    1       -5.412377     -5.412368
    2        1.731978      1.731988
    3        4.873468      4.873501
    4        4.873468      4.873501
    5        7.578107      7.578134
    6        9.108525      9.108536
    7        9.108525      9.108536
    8       12.370577     12.370792
    9       12.805450     12.805277
   10       12.805450     12.805277
   11       14.547630     14.547946
   12       17.330223     17.330655
 
  0.3750000E+00  0.0000000E+00  0.0000000E+00  0.1562500E-01
    1       -4.537704     -4.537696
    2       -0.252663     -0.252651
    3        4.550697      4.550746
    4        4.550697      4.550746
    5        7.213524      7.213521
    6        9.071358      9.071265
    7        9.071358      9.071265
    8       13.455190     13.455932
    9       14.157775     14.157640
   10       14.157775     14.157640
   11       15.131508     15.131641
   12       19.240228     19.240157
 
  0.5000000E+00  0.0000000E+00  0.0000000E+00  0.7812500E-02
    1       -3.918249     -3.918243
    2       -1.250889     -1.250873
    3        4.440044      4.440100
    4        4.440045      4.440100
    5        7.085359      7.085344
    6        8.967662      8.967530
    7        8.967662      8.967530
    8       13.319323     13.320130
    9       16.113682     16.113766
   10       16.113682     16.113766
   11       16.801494     16.801078
   12       16.839030     16.838692
 
  0.1250000E+00  0.1250000E+00  0.0000000E+00  0.1171875E-01
    1       -5.929292     -5.929282
    2        4.266600      4.266615
    3        4.831947      4.831949
    4        4.831947      4.831949
    5        7.633687      7.633789
    6        9.290313      9.290364
    7        9.290313      9.290364
    8        9.839846      9.839931
    9       12.102599     12.102371
   10       13.625496     13.625680
   11       14.565706     14.566124
   12       17.267594     17.266677
 
  0.2500000E+00  0.1250000E+00  0.0000000E+00  0.4687500E-01
    1       -5.469137     -5.469127
    2        2.412726      2.412736
    3        4.329530      4.329536
    4        4.393286      4.393314
    5        7.763247      7.763346
    6        9.244097      9.244121
    7       10.046031     10.046051
    8       10.356876     10.356886
    9       12.980269     12.980090
   10       13.786728     13.786757
   11       15.553546     15.553826
   12       17.115364     17.115780
 
  0.3750000E+00  0.1250000E+00  0.0000000E+00  0.4687500E-01
    1       -4.670443     -4.670434
    2        0.390489      0.390501
    3        3.809880      3.809919
    4        4.064610      4.064628
    5        7.846542      7.846588
    6        9.211456      9.211418
    7       10.060061     10.060005
    8       11.057705     11.057771
    9       14.888149     14.888111
   10       14.899325     14.899613
   11       15.409823     15.409930
   12       18.890174     18.890147
 
  0.5000000E+00  0.1250000E+00  0.0000000E+00  0.4687500E-01
    1       -3.831276     -3.831269
    2       -1.040204     -1.040190
    3        3.372795      3.372831
    4        4.086616      4.086649
    5        7.781643      7.781630
    6        9.107144      9.107127
    7        9.711845      9.711738
    8       12.923046     12.923300
    9       14.561162     14.561640
   10       16.035376     16.035355
   11       17.020818     17.020853
   12       17.157543     17.157355
 
 -0.3750000E+00  0.1250000E+00  0.0000000E+00  0.4687500E-01
    1       -4.068618     -4.068610
    2       -0.678916     -0.678903
    3        3.197557      3.197586
    4        4.375913      4.375960
    5        7.931273      7.931226
    6        9.226040      9.226070
    7        9.482323      9.482234
    8       13.446140     13.446593
    9       13.677266     13.677082
   10       14.753000     14.753393
   11       16.696127     16.695941
   12       17.901472     17.901493
 
 -0.2500000E+00  0.1250000E+00  0.0000000E+00  0.4687500E-01
    1       -4.970495     -4.970486
    2        1.036889      1.036899
    3        3.351772      3.351794
    4        4.857179      4.857230
    5        8.274678      8.274636
    6        9.279877      9.279893
    7        9.453915      9.453966
    8       11.830112     11.830357
    9       12.094293     12.094006
   10       15.363649     15.363901
   11       15.577654     15.577687
   12       17.921021     17.921666
 
 -0.1250000E+00  0.1250000E+00  0.0000000E+00  0.2343750E-01
    1       -5.666763     -5.666753
    2        2.944079      2.944086
    3        4.029181      4.029196
    4        5.328876      5.328914
    5        8.587682      8.587666
    6        8.727566      8.727637
    7        8.949286      8.949373
    8       11.049452     11.049609
    9       11.974003     11.973749
   10       13.584395     13.584327
   11       15.273939     15.274231
   12       16.732066     16.732629
 
  0.2500000E+00  0.2500000E+00  0.0000000E+00  0.1171875E-01
    1       -5.134683     -5.134673
    2        2.100242      2.100263
    3        3.769722      3.769717
    4        3.769722      3.769718
    5        6.769429      6.769554
    6        8.753831      8.753873
    7       11.308498     11.308498
    8       11.308498     11.308498
    9       13.488617     13.488369
   10       14.518687     14.518870
   11       16.919692     16.920130
   12       18.536519     18.535937
 
  0.3750000E+00  0.2500000E+00  0.0000000E+00  0.4687500E-01
    1       -4.438053     -4.438043
    2        0.703203      0.703217
    3        3.003615      3.003628
    4        3.456650      3.456647
    5        6.988939      6.989042
    6        8.521088      8.521137
    7       11.527754     11.527721
    8       11.825833     11.825793
    9       15.542192     15.542300
   10       15.590961     15.590759
   11       17.165894     17.166271
   12       18.705402     18.705423
 
  0.5000000E+00  0.2500000E+00  0.0000000E+00  0.4687500E-01
    1       -3.532940     -3.532932
    2       -0.705386     -0.705375
    3        2.155479      2.155500
    4        3.458611      3.458616
    5        7.159739      7.159793
    6       10.050111     10.050218
    7       11.265505     11.265493
    8       11.495578     11.495506
    9       15.705326     15.705664
   10       16.079384     16.079296
   11       17.668307     17.668310
   12       18.141300     18.141144
 
 -0.3750000E+00  0.2500000E+00  0.0000000E+00  0.4687500E-01
    1       -3.335703     -3.335695
    2       -0.955429     -0.955417
    3        1.707982      1.708004
    4        3.769881      3.769902
    5        7.474013      7.474024
    6       11.020152     11.020263
    7       11.061207     11.061168
    8       12.502294     12.502417
    9       13.512136     13.512335
   10       13.566276     13.566059
   11       18.096972     18.097233
   12       20.301235     20.301372
 
 -0.2500000E+00  0.2500000E+00  0.0000000E+00  0.2343750E-01
    1       -4.192958     -4.192950
    2        0.178917      0.178926
    3        1.948712      1.948734
    4        4.316174      4.316213
    5        8.056151      8.056104
    6       10.367298     10.367361
    7       10.701950     10.702045
    8       11.660333     11.660586
    9       12.072053     12.071701
   10       15.140748     15.140976
   11       18.112685     18.113495
   12       18.649165     18.649355
 
  0.3750000E+00  0.3750000E+00  0.0000000E+00  0.1171875E-01
    1       -3.845960     -3.845950
    2       -0.093812     -0.093796
    3        3.065592      3.065581
    4        3.065593      3.065581
    5        6.268150      6.268272
    6        7.193570      7.193635
    7       13.556462     13.556392
    8       13.556463     13.556392
    9       16.001222     16.001402
   10       16.102938     16.102809
   11       18.503627     18.503588
   12       18.503639     18.503597
 
  0.5000000E+00  0.3750000E+00  0.0000000E+00  0.4687500E-01
    1       -2.966490     -2.966480
    2       -1.160493     -1.160481
    3        2.259739      2.259742
    4        2.990373      2.990364
    5        6.548634      6.548728
    6        7.602983      7.603069
    7       13.793383     13.793331
    8       13.849475     13.849447
    9       16.237850     16.237900
   10       16.338457     16.338339
   11       17.835046     17.835168
   12       18.258216     18.258174
 
 -0.3750000E+00  0.3750000E+00  0.0000000E+00  0.2343750E-01
    1       -2.543084     -2.543076
    2       -1.545845     -1.545834
    3        1.417209      1.417225
    4        3.242625      3.242626
    5        6.851988      6.852053
    6        9.730376      9.730490
    7       12.999709     12.999751
    8       13.535326     13.535314
    9       13.702257     13.702396
   10       14.098936     14.098675
   11       20.121432     20.121714
   12       20.384851     20.384872
 
  0.5000000E+00  0.5000000E+00  0.0000000E+00  0.5859375E-02
    1       -2.128267     -2.128255
    2       -2.128258     -2.128246
    3        2.824069      2.824055
    4        2.824069      2.824055
    5        6.369183      6.369283
    6        6.369183      6.369283
    7       15.556091     15.556050
    8       15.556092     15.556050
    9       16.526037     16.525814
   10       16.526037     16.525814
   11       18.061576     18.063136
   12       18.162397     18.133756
 
  0.3750000E+00  0.2500000E+00  0.1250000E+00  0.4687500E-01
    1       -4.892317     -4.892307
    2        1.350271      1.350282
    3        2.965980      2.965995
    4        4.218274      4.218298
    5        8.061474      8.061575
    6        9.446299      9.446262
    7        9.821087      9.821102
    8       11.059854     11.059889
    9       13.332167     13.332048
   10       15.725248     15.725190
   11       16.583630     16.583851
   12       17.650726     17.651575
 
  0.5000000E+00  0.2500000E+00  0.1250000E+00  0.9375000E-01
    1       -4.022660     -4.022652
    2       -0.169616     -0.169605
    3        2.361954      2.361976
    4        3.730728      3.730751
    5        8.482816      8.482861
    6        9.148411      9.148398
    7       10.596447     10.596511
    8       11.497340     11.497310
    9       14.550146     14.550092
   10       15.245945     15.246233
   11       17.521346     17.521560
   12       18.369509     18.369442
 
 -0.3750000E+00  0.2500000E+00  0.1250000E+00  0.4687500E-01
    1       -3.388303     -3.388295
    2       -1.089377     -1.089364
    3        2.230623      2.230647
    4        3.507644      3.507663
    5        8.642575      8.642523
    6        8.764411      8.764490
    7       11.465984     11.465935
    8       12.684830     12.684976
    9       12.926406     12.926506
   10       16.126761     16.126926
   11       17.173103     17.172981
   12       17.893771     17.893858
 
  0.5000000E+00  0.3750000E+00  0.1250000E+00  0.4687500E-01
    1       -3.652588     -3.652578
    2       -0.309085     -0.309072
    3        2.330122      2.330132
    4        2.922158      2.922163
    5        7.573976      7.574077
    6        8.276887      8.276943
    7       11.304273     11.304236
    8       13.507771     13.507732
    9       15.675407     15.675342
   10       15.729290     15.729423
   11       18.305157     18.305098
   12       18.807513     18.807722
 
 -0.3750000E+00  0.3750000E+00  0.1250000E+00  0.9375000E-01
    1       -2.798807     -2.798799
    2       -1.257773     -1.257762
    3        1.649724      1.649741
    4        2.726141      2.726149
    5        8.013339      8.013407
    6        9.887264      9.887404
    7       10.831737     10.831683
    8       12.971163     12.971210
    9       13.927350     13.927302
   10       16.580071     16.580011
   11       17.692170     17.692057
   12       19.804967     19.805392
 
 -0.2500000E+00  0.3750000E+00  0.1250000E+00  0.4687500E-01
    1       -3.142536     -3.142528
    2       -0.899891     -0.899881
    3        1.487296      1.487315
    4        3.092845      3.092860
    5        8.482918      8.482956
    6       10.133096     10.133204
    7       10.784938     10.784929
    8       12.582056     12.582142
    9       13.385667     13.385666
   10       14.766240     14.766117
   11       19.556517     19.556663
   12       19.759285     19.759632
 
 -0.3750000E+00  0.5000000E+00  0.1250000E+00  0.2343750E-01
    1       -2.054464     -2.054453
    2       -2.054455     -2.054444
    3        2.278739      2.278743
    4        2.278739      2.278743
    5        7.604039      7.604126
    6        7.604040      7.604126
    7       13.371097     13.371099
    8       13.371097     13.371099
    9       16.073332     16.073225
   10       16.073333     16.073225
   11       18.340802     18.340835
   12       18.340803     18.340837
 
 -0.2500000E+00  0.5000000E+00  0.2500000E+00  0.1171875E-01
    1       -1.973583     -1.973574
    2       -1.973574     -1.973565
    3        1.856696      1.856709
    4        1.856697      1.856710
    5        9.888192      9.888414
    6        9.888194      9.888415
    7       10.550715     10.550583
    8       10.550717     10.550585
    9       16.071098     16.071039
   10       16.071098     16.071040
   11       18.490492     18.490308
   12       18.490493     18.490309
