       N       E                     dE             d eps       ncg     rms          rms(c)
DAV:   1    -0.177458024876E-01   -0.17746E-01   -0.32233E+03  1392   0.514E+02
DAV:   2    -0.186517139211E+02   -0.18634E+02   -0.18097E+02  1840   0.852E+01
DAV:   3    -0.192677742525E+02   -0.61606E+00   -0.61458E+00  1820   0.129E+01
DAV:   4    -0.192733866799E+02   -0.56124E-02   -0.56117E-02  1672   0.155E+00
DAV:   5    -0.192734617482E+02   -0.75068E-04   -0.75067E-04  1852   0.168E-01    0.216E+03
DAV:   6    -0.134884428385E+02    0.57850E+01   -0.13758E+00  1620   0.467E+00    0.130E+03
DAV:   7    -0.108024386357E+02    0.26860E+01   -0.36278E+00  1628   0.765E+00    0.224E+01
DAV:   8    -0.108321532245E+02   -0.29715E-01   -0.14037E-01  1504   0.210E+00    0.145E+00
DAV:   9    -0.108381185983E+02   -0.59654E-02   -0.75984E-03  1596   0.404E-01    0.493E-01
DAV:  10    -0.108461355420E+02   -0.80169E-02   -0.14808E-02  1580   0.536E-01    0.130E-01
DAV:  11    -0.108464002874E+02   -0.26475E-03   -0.15005E-03  1524   0.355E-01    0.123E-01
DAV:  12    -0.108468229426E+02   -0.42266E-03   -0.55054E-04  1548   0.237E-01    0.487E-02
DAV:  13    -0.108468287607E+02   -0.58180E-05   -0.15847E-05  1152   0.309E-02
   1 F= -.10846829E+02 E0= -.10846829E+02  d E =0.000000E+00  mag=     0.0000
