PROCAR lm decomposed
# of k-points:   29         # of bands:  12         # of ions:   2

 k-point    1 :    0.00000000 0.00000000 0.00000000     weight = 0.00195312

band   1 # energy   -6.19738551 # occ.  1.00000000
 
ion      s     py     pz     px    dxy    dyz    dz2    dxz    dx2    tot
  1  0.212  0.000  0.000  0.000  0.000  0.000  0.000  0.000  0.000  0.212
  2  0.212  0.000  0.000  0.000  0.000  0.000  0.000  0.000  0.000  0.212
tot  0.424  0.000  0.000  0.000  0.000  0.000  0.000  0.000  0.000  0.424
 
band   2 # energy    5.61865500 # occ.  1.00000000
 
ion      s     py     pz     px    dxy    dyz    dz2    dxz    dx2    tot
  1  0.000  0.049  0.026  0.138  0.000  0.000  0.000  0.000  0.000  0.214
  2  0.000  0.049  0.026  0.138  0.000  0.000  0.000  0.000  0.000  0.214
tot  0.000  0.099  0.053  0.277  0.000  0.000  0.000  0.000  0.000  0.428
 
band   3 # energy    5.61865500 # occ.  1.00000000
 
ion      s     py     pz     px    dxy    dyz    dz2    dxz    dx2    tot
  1  0.000  0.091  0.115  0.008  0.000  0.000  0.000  0.000  0.000  0.214
  2  0.000  0.091  0.115  0.008  0.000  0.000  0.000  0.000  0.000  0.214
tot  0.000  0.183  0.230  0.015  0.000  0.000  0.000  0.000  0.000  0.428
 
band   4 # energy    5.61865513 # occ.  1.00000000
 
ion      s     py     pz     px    dxy    dyz    dz2    dxz    dx2    tot
  1  0.000  0.073  0.073  0.068  0.000  0.000  0.000  0.000  0.000  0.214
  2  0.000  0.073  0.073  0.068  0.000  0.000  0.000  0.000  0.000  0.214
tot  0.000  0.146  0.146  0.136  0.000  0.000  0.000  0.000  0.000  0.428
 
band   5 # energy    8.17513268 # occ.  0.00000000
 
ion      s     py     pz     px    dxy    dyz    dz2    dxz    dx2    tot
  1  0.000  0.095  0.015  0.041  0.000  0.000  0.000  0.000  0.000  0.151
  2  0.000  0.095  0.015  0.041  0.000  0.000  0.000  0.000  0.000  0.151
tot  0.000  0.189  0.029  0.083  0.000  0.000  0.000  0.000  0.000  0.301
 
band   6 # energy    8.17513268 # occ.  0.00000000
 
ion      s     py     pz     px    dxy    dyz    dz2    dxz    dx2    tot
  1  0.000  0.006  0.086  0.059  0.000  0.000  0.000  0.000  0.000  0.151
  2  0.000  0.006  0.086  0.059  0.000  0.000  0.000  0.000  0.000  0.151
tot  0.000  0.012  0.172  0.118  0.000  0.000  0.000  0.000  0.000  0.301
 
band   7 # energy    8.17513286 # occ.  0.00000000
 
ion      s     py     pz     px    dxy    dyz    dz2    dxz    dx2    tot
  1  0.000  0.050  0.050  0.050  0.000  0.000  0.000  0.000  0.000  0.151
  2  0.000  0.050  0.050  0.050  0.000  0.000  0.000  0.000  0.000  0.151
tot  0.000  0.100  0.100  0.100  0.000  0.000  0.000  0.000  0.000  0.301
 
band   8 # energy    8.75379166 # occ.  0.00000000
 
ion      s     py     pz     px    dxy    dyz    dz2    dxz    dx2    tot
  1  0.359  0.000  0.000  0.000  0.000  0.000  0.000  0.000  0.000  0.359
  2  0.359  0.000  0.000  0.000  0.000  0.000  0.000  0.000  0.000  0.359
tot  0.717  0.000  0.000  0.000  0.000  0.000  0.000  0.000  0.000  0.717
 
band   9 # energy   13.32720853 # occ.  0.00000000
 
ion      s     py     pz     px    dxy    dyz    dz2    dxz    dx2    tot
  1  0.000  0.000  0.000  0.000  0.000  0.000  0.000  0.000  0.000  0.000
  2  0.000  0.000  0.000  0.000  0.000  0.000  0.000  0.000  0.000  0.000
tot  0.000  0.000  0.000  0.000  0.000  0.000  0.000  0.000  0.000  0.000
 
band  10 # energy   13.32720854 # occ.  0.00000000
 
ion      s     py     pz     px    dxy    dyz    dz2    dxz    dx2    tot
  1  0.000  0.000  0.000  0.000  0.000  0.000  0.000  0.000  0.000  0.000
  2  0.000  0.000  0.000  0.000  0.000  0.000  0.000  0.000  0.000  0.000
tot  0.000  0.000  0.000  0.000  0.000  0.000  0.000  0.000  0.000  0.000
 
band  11 # energy   13.49524274 # occ.  0.00000000
 
ion      s     py     pz     px    dxy    dyz    dz2    dxz    dx2    tot
  1  0.100  0.000  0.000  0.000  0.000  0.000  0.000  0.000  0.000  0.100
  2  0.100  0.000  0.000  0.000  0.000  0.000  0.000  0.000  0.000  0.100
tot  0.201  0.000  0.000  0.000  0.000  0.000  0.000  0.000  0.000  0.201
 
band  12 # energy   16.80109913 # occ.  0.00000000
 
ion      s     py     pz     px    dxy    dyz    dz2    dxz    dx2    tot
  1  0.000  0.001  0.000  0.037  0.000  0.000  0.000  0.000  0.000  0.039
  2  0.000  0.001  0.000  0.037  0.000  0.000  0.000  0.000  0.000  0.039
tot  0.000  0.003  0.001  0.075  0.000  0.000  0.000  0.000  0.000  0.078
 

 k-point    2 :    0.12500000 0.00000000 0.00000000     weight = 0.01562500

band   1 # energy   -5.99689164 # occ.  1.00000000
 
ion      s     py     pz     px    dxy    dyz    dz2    dxz    dx2    tot
  1  0.211  0.001  0.001  0.001  0.000  0.000  0.000  0.000  0.000  0.213
  2  0.211  0.001  0.001  0.001  0.000  0.000  0.000  0.000  0.000  0.213
tot  0.422  0.001  0.001  0.001  0.000  0.000  0.000  0.000  0.000  0.426
 
band   2 # energy    4.02777421 # occ.  1.00000000
 
ion      s     py     pz     px    dxy    dyz    dz2    dxz    dx2    tot
  1  0.064  0.052  0.052  0.052  0.000  0.000  0.000  0.000  0.000  0.219
  2  0.064  0.052  0.052  0.052  0.000  0.000  0.000  0.000  0.000  0.219
tot  0.128  0.103  0.103  0.103  0.000  0.000  0.000  0.000  0.000  0.438
 
band   3 # energy    5.33618712 # occ.  1.00000000
 
ion      s     py     pz     px    dxy    dyz    dz2    dxz    dx2    tot
  1  0.000  0.106  0.106  0.000  0.000  0.000  0.000  0.000  0.000  0.211
  2  0.000  0.106  0.106  0.000  0.000  0.000  0.000  0.000  0.000  0.211
tot  0.000  0.211  0.211  0.000  0.000  0.000  0.000  0.000  0.000  0.422
 
band   4 # energy    5.33618725 # occ.  1.00000000
 
ion      s     py     pz     px    dxy    dyz    dz2    dxz    dx2    tot
  1  0.000  0.035  0.035  0.141  0.000  0.000  0.000  0.000  0.000  0.211
  2  0.000  0.035  0.035  0.141  0.000  0.000  0.000  0.000  0.000  0.211
tot  0.000  0.070  0.070  0.281  0.000  0.000  0.000  0.000  0.000  0.422
 
band   5 # energy    8.06179624 # occ.  0.00000000
 
ion      s     py     pz     px    dxy    dyz    dz2    dxz    dx2    tot
  1  0.110  0.029  0.029  0.029  0.000  0.000  0.000  0.000  0.000  0.198
  2  0.110  0.029  0.029  0.029  0.000  0.000  0.000  0.000  0.000  0.198
tot  0.219  0.059  0.059  0.059  0.000  0.000  0.000  0.000  0.000  0.396
 
band   6 # energy    8.59068753 # occ.  0.00000000
 
ion      s     py     pz     px    dxy    dyz    dz2    dxz    dx2    tot
  1  0.000  0.077  0.077  0.000  0.000  0.000  0.000  0.000  0.000  0.154
  2  0.000  0.077  0.077  0.000  0.000  0.000  0.000  0.000  0.000  0.154
tot  0.000  0.154  0.154  0.000  0.000  0.000  0.000  0.000  0.000  0.308
 
band   7 # energy    8.59068768 # occ.  0.00000000
 
ion      s     py     pz     px    dxy    dyz    dz2    dxz    dx2    tot
  1  0.000  0.026  0.026  0.103  0.000  0.000  0.000  0.000  0.000  0.154
  2  0.000  0.026  0.026  0.103  0.000  0.000  0.000  0.000  0.000  0.154
tot  0.000  0.051  0.051  0.206  0.000  0.000  0.000  0.000  0.000  0.308
 
band   8 # energy   10.15236674 # occ.  0.00000000
 
ion      s     py     pz     px    dxy    dyz    dz2    dxz    dx2    tot
  1  0.196  0.033  0.033  0.033  0.000  0.000  0.000  0.000  0.000  0.295
  2  0.196  0.033  0.033  0.033  0.000  0.000  0.000  0.000  0.000  0.295
tot  0.393  0.066  0.066  0.066  0.000  0.000  0.000  0.000  0.000  0.590
 
band   9 # energy   12.85433561 # occ.  0.00000000
 
ion      s     py     pz     px    dxy    dyz    dz2    dxz    dx2    tot
  1  0.000  0.001  0.001  0.000  0.000  0.000  0.000  0.000  0.000  0.002
  2  0.000  0.001  0.001  0.000  0.000  0.000  0.000  0.000  0.000  0.002
tot  0.000  0.002  0.002  0.000  0.000  0.000  0.000  0.000  0.000  0.004
 
band  10 # energy   12.85433567 # occ.  0.00000000
 
ion      s     py     pz     px    dxy    dyz    dz2    dxz    dx2    tot
  1  0.000  0.000  0.000  0.001  0.000  0.000  0.000  0.000  0.000  0.002
  2  0.000  0.000  0.000  0.001  0.000  0.000  0.000  0.000  0.000  0.002
tot  0.000  0.001  0.001  0.002  0.000  0.000  0.000  0.000  0.000  0.004
 
band  11 # energy   14.27118706 # occ.  0.00000000
 
ion      s     py     pz     px    dxy    dyz    dz2    dxz    dx2    tot
  1  0.077  0.011  0.011  0.011  0.000  0.000  0.000  0.000  0.000  0.109
  2  0.077  0.011  0.011  0.011  0.000  0.000  0.000  0.000  0.000  0.109
tot  0.155  0.021  0.021  0.021  0.000  0.000  0.000  0.000  0.000  0.219
 
band  12 # energy   16.24676066 # occ.  0.00000000
 
ion      s     py     pz     px    dxy    dyz    dz2    dxz    dx2    tot
  1  0.015  0.007  0.007  0.007  0.000  0.000  0.000  0.000  0.000  0.037
  2  0.015  0.007  0.007  0.007  0.000  0.000  0.000  0.000  0.000  0.037
tot  0.031  0.015  0.015  0.015  0.000  0.000  0.000  0.000  0.000  0.074
 

 k-point    3 :    0.25000000 0.00000000 0.00000000     weight = 0.01562500

band   1 # energy   -5.41237740 # occ.  1.00000000
 
ion      s     py     pz     px    dxy    dyz    dz2    dxz    dx2    tot
  1  0.209  0.003  0.003  0.003  0.000  0.000  0.000  0.000  0.000  0.217
  2  0.209  0.003  0.003  0.003  0.000  0.000  0.000  0.000  0.000  0.217
tot  0.419  0.005  0.005  0.005  0.000  0.000  0.000  0.000  0.000  0.434
 
band   2 # energy    1.73197838 # occ.  1.00000000
 
ion      s     py     pz     px    dxy    dyz    dz2    dxz    dx2    tot
  1  0.097  0.039  0.039  0.039  0.000  0.000  0.000  0.000  0.000  0.214
  2  0.097  0.039  0.039  0.039  0.000  0.000  0.000  0.000  0.000  0.214
tot  0.194  0.078  0.078  0.078  0.000  0.000  0.000  0.000  0.000  0.428
 
band   3 # energy    4.87346824 # occ.  1.00000000
 
ion      s     py     pz     px    dxy    dyz    dz2    dxz    dx2    tot
  1  0.000  0.106  0.106  0.000  0.000  0.000  0.000  0.000  0.000  0.211
  2  0.000  0.106  0.106  0.000  0.000  0.000  0.000  0.000  0.000  0.211
tot  0.000  0.211  0.211  0.000  0.000  0.000  0.000  0.000  0.000  0.423
 
band   4 # energy    4.87346838 # occ.  1.00000000
 
ion      s     py     pz     px    dxy    dyz    dz2    dxz    dx2    tot
  1  0.000  0.035  0.035  0.141  0.000  0.000  0.000  0.000  0.000  0.211
  2  0.000  0.035  0.035  0.141  0.000  0.000  0.000  0.000  0.000  0.211
tot  0.000  0.070  0.070  0.282  0.000  0.000  0.000  0.000  0.000  0.423
 
band   5 # energy    7.57810716 # occ.  0.00000000
 
ion      s     py     pz     px    dxy    dyz    dz2    dxz    dx2    tot
  1  0.156  0.016  0.016  0.016  0.000  0.000  0.000  0.000  0.000  0.204
  2  0.156  0.016  0.016  0.016  0.000  0.000  0.000  0.000  0.000  0.204
tot  0.312  0.032  0.032  0.032  0.000  0.000  0.000  0.000  0.000  0.409
 
band   6 # energy    9.10852455 # occ.  0.00000000
 
ion      s     py     pz     px    dxy    dyz    dz2    dxz    dx2    tot
  1  0.000  0.069  0.069  0.000  0.000  0.000  0.000  0.000  0.000  0.139
  2  0.000  0.069  0.069  0.000  0.000  0.000  0.000  0.000  0.000  0.139
tot  0.000  0.139  0.139  0.000  0.000  0.000  0.000  0.000  0.000  0.277
 
band   7 # energy    9.10852468 # occ.  0.00000000
 
ion      s     py     pz     px    dxy    dyz    dz2    dxz    dx2    tot
  1  0.000  0.023  0.023  0.092  0.000  0.000  0.000  0.000  0.000  0.139
  2  0.000  0.023  0.023  0.092  0.000  0.000  0.000  0.000  0.000  0.139
tot  0.000  0.046  0.046  0.185  0.000  0.000  0.000  0.000  0.000  0.277
 
band   8 # energy   12.37057691 # occ.  0.00000000
 
ion      s     py     pz     px    dxy    dyz    dz2    dxz    dx2    tot
  1  0.111  0.050  0.050  0.050  0.000  0.000  0.000  0.000  0.000  0.262
  2  0.111  0.050  0.050  0.050  0.000  0.000  0.000  0.000  0.000  0.262
tot  0.222  0.101  0.101  0.101  0.000  0.000  0.000  0.000  0.000  0.524
 
band   9 # energy   12.80545016 # occ.  0.00000000
 
ion      s     py     pz     px    dxy    dyz    dz2    dxz    dx2    tot
  1  0.000  0.008  0.008  0.000  0.000  0.000  0.000  0.000  0.000  0.016
  2  0.000  0.008  0.008  0.000  0.000  0.000  0.000  0.000  0.000  0.016
tot  0.000  0.016  0.016  0.000  0.000  0.000  0.000  0.000  0.000  0.032
 
band  10 # energy   12.80545027 # occ.  0.00000000
 
ion      s     py     pz     px    dxy    dyz    dz2    dxz    dx2    tot
  1  0.000  0.003  0.003  0.011  0.000  0.000  0.000  0.000  0.000  0.016
  2  0.000  0.003  0.003  0.011  0.000  0.000  0.000  0.000  0.000  0.016
tot  0.000  0.006  0.005  0.021  0.000  0.000  0.000  0.000  0.000  0.032
 
band  11 # energy   14.54762961 # occ.  0.00000000
 
ion      s     py     pz     px    dxy    dyz    dz2    dxz    dx2    tot
  1  0.048  0.007  0.007  0.007  0.000  0.000  0.000  0.000  0.000  0.069
  2  0.048  0.007  0.007  0.007  0.000  0.000  0.000  0.000  0.000  0.069
tot  0.096  0.014  0.014  0.014  0.000  0.000  0.000  0.000  0.000  0.138
 
band  12 # energy   17.33022338 # occ.  0.00000000
 
ion      s     py     pz     px    dxy    dyz    dz2    dxz    dx2    tot
  1  0.036  0.024  0.024  0.024  0.000  0.000  0.000  0.000  0.000  0.109
  2  0.036  0.024  0.024  0.024  0.000  0.000  0.000  0.000  0.000  0.109
tot  0.073  0.049  0.049  0.049  0.000  0.000  0.000  0.000  0.000  0.219
 

 k-point    4 :    0.37500000 0.00000000 0.00000000     weight = 0.01562500

band   1 # energy   -4.53770406 # occ.  1.00000000
 
ion      s     py     pz     px    dxy    dyz    dz2    dxz    dx2    tot
  1  0.212  0.005  0.005  0.005  0.000  0.000  0.000  0.000  0.000  0.226
  2  0.212  0.005  0.005  0.005  0.000  0.000  0.000  0.000  0.000  0.226
tot  0.424  0.009  0.009  0.009  0.000  0.000  0.000  0.000  0.000  0.451
 
band   2 # energy   -0.25266323 # occ.  1.00000000
 
ion      s     py     pz     px    dxy    dyz    dz2    dxz    dx2    tot
  1  0.108  0.032  0.032  0.032  0.000  0.000  0.000  0.000  0.000  0.204
  2  0.108  0.032  0.032  0.032  0.000  0.000  0.000  0.000  0.000  0.204
tot  0.215  0.064  0.064  0.064  0.000  0.000  0.000  0.000  0.000  0.407
 
band   3 # energy    4.55069662 # occ.  1.00000000
 
ion      s     py     pz     px    dxy    dyz    dz2    dxz    dx2    tot
  1  0.000  0.107  0.107  0.000  0.000  0.000  0.000  0.000  0.000  0.214
  2  0.000  0.107  0.107  0.000  0.000  0.000  0.000  0.000  0.000  0.214
tot  0.000  0.214  0.214  0.000  0.000  0.000  0.000  0.000  0.000  0.428
 
band   4 # energy    4.55069676 # occ.  1.00000000
 
ion      s     py     pz     px    dxy    dyz    dz2    dxz    dx2    tot
  1  0.000  0.036  0.036  0.143  0.000  0.000  0.000  0.000  0.000  0.214
  2  0.000  0.036  0.036  0.143  0.000  0.000  0.000  0.000  0.000  0.214
tot  0.000  0.071  0.071  0.285  0.000  0.000  0.000  0.000  0.000  0.428
 
band   5 # energy    7.21352369 # occ.  0.00000000
 
ion      s     py     pz     px    dxy    dyz    dz2    dxz    dx2    tot
  1  0.178  0.009  0.009  0.009  0.000  0.000  0.000  0.000  0.000  0.205
  2  0.178  0.009  0.009  0.009  0.000  0.000  0.000  0.000  0.000  0.205
tot  0.355  0.018  0.018  0.018  0.000  0.000  0.000  0.000  0.000  0.411
 
band   6 # energy    9.07135808 # occ.  0.00000000
 
ion      s     py     pz     px    dxy    dyz    dz2    dxz    dx2    tot
  1  0.000  0.053  0.053  0.000  0.000  0.000  0.000  0.000  0.000  0.106
  2  0.000  0.053  0.053  0.000  0.000  0.000  0.000  0.000  0.000  0.106
tot  0.000  0.107  0.106  0.000  0.000  0.000  0.000  0.000  0.000  0.212
 
band   7 # energy    9.07135820 # occ.  0.00000000
 
ion      s     py     pz     px    dxy    dyz    dz2    dxz    dx2    tot
  1  0.000  0.017  0.018  0.071  0.000  0.000  0.000  0.000  0.000  0.106
  2  0.000  0.017  0.018  0.071  0.000  0.000  0.000  0.000  0.000  0.106
tot  0.000  0.035  0.036  0.142  0.000  0.000  0.000  0.000  0.000  0.212
 
band   8 # energy   13.45518960 # occ.  0.00000000
 
ion      s     py     pz     px    dxy    dyz    dz2    dxz    dx2    tot
  1  0.004  0.029  0.029  0.029  0.000  0.000  0.000  0.000  0.000  0.091
  2  0.004  0.029  0.029  0.029  0.000  0.000  0.000  0.000  0.000  0.091
tot  0.008  0.058  0.058  0.058  0.000  0.000  0.000  0.000  0.000  0.183
 
band   9 # energy   14.15777488 # occ.  0.00000000
 
ion      s     py     pz     px    dxy    dyz    dz2    dxz    dx2    tot
  1  0.000  0.020  0.020  0.000  0.000  0.000  0.000  0.000  0.000  0.040
  2  0.000  0.020  0.020  0.000  0.000  0.000  0.000  0.000  0.000  0.040
tot  0.000  0.040  0.040  0.000  0.000  0.000  0.000  0.000  0.000  0.080
 
band  10 # energy   14.15777500 # occ.  0.00000000
 
ion      s     py     pz     px    dxy    dyz    dz2    dxz    dx2    tot
  1  0.000  0.007  0.007  0.027  0.000  0.000  0.000  0.000  0.000  0.040
  2  0.000  0.007  0.007  0.027  0.000  0.000  0.000  0.000  0.000  0.040
tot  0.000  0.013  0.014  0.054  0.000  0.000  0.000  0.000  0.000  0.080
 
band  11 # energy   15.13150844 # occ.  0.00000000
 
ion      s     py     pz     px    dxy    dyz    dz2    dxz    dx2    tot
  1  0.100  0.034  0.034  0.034  0.000  0.000  0.000  0.000  0.000  0.202
  2  0.100  0.034  0.034  0.034  0.000  0.000  0.000  0.000  0.000  0.202
tot  0.201  0.068  0.068  0.068  0.000  0.000  0.000  0.000  0.000  0.404
 
band  12 # energy   19.24022786 # occ.  0.00000000
 
ion      s     py     pz     px    dxy    dyz    dz2    dxz    dx2    tot
  1  0.000  0.042  0.009  0.013  0.000  0.000  0.000  0.000  0.000  0.063
  2  0.000  0.041  0.009  0.013  0.000  0.000  0.000  0.000  0.000  0.063
tot  0.000  0.083  0.017  0.026  0.000  0.000  0.000  0.000  0.000  0.126
 

 k-point    5 :    0.50000000 0.00000000 0.00000000     weight = 0.00781250

band   1 # energy   -3.91824944 # occ.  1.00000000
 
ion      s     py     pz     px    dxy    dyz    dz2    dxz    dx2    tot
  1  0.224  0.004  0.004  0.004  0.000  0.000  0.000  0.000  0.000  0.237
  2  0.224  0.004  0.004  0.004  0.000  0.000  0.000  0.000  0.000  0.237
tot  0.447  0.009  0.009  0.009  0.000  0.000  0.000  0.000  0.000  0.474
 
band   2 # energy   -1.25088870 # occ.  1.00000000
 
ion      s     py     pz     px    dxy    dyz    dz2    dxz    dx2    tot
  1  0.100  0.031  0.031  0.031  0.000  0.000  0.000  0.000  0.000  0.192
  2  0.100  0.031  0.031  0.031  0.000  0.000  0.000  0.000  0.000  0.192
tot  0.199  0.061  0.061  0.061  0.000  0.000  0.000  0.000  0.000  0.384
 
band   3 # energy    4.44004437 # occ.  1.00000000
 
ion      s     py     pz     px    dxy    dyz    dz2    dxz    dx2    tot
  1  0.000  0.108  0.108  0.000  0.000  0.000  0.000  0.000  0.000  0.215
  2  0.000  0.108  0.108  0.000  0.000  0.000  0.000  0.000  0.000  0.215
tot  0.000  0.215  0.215  0.000  0.000  0.000  0.000  0.000  0.000  0.431
 
band   4 # energy    4.44004451 # occ.  1.00000000
 
ion      s     py     pz     px    dxy    dyz    dz2    dxz    dx2    tot
  1  0.000  0.036  0.036  0.144  0.000  0.000  0.000  0.000  0.000  0.215
  2  0.000  0.036  0.036  0.144  0.000  0.000  0.000  0.000  0.000  0.215
tot  0.000  0.072  0.072  0.287  0.000  0.000  0.000  0.000  0.000  0.431
 
band   5 # energy    7.08535850 # occ.  0.00000000
 
ion      s     py     pz     px    dxy    dyz    dz2    dxz    dx2    tot
  1  0.185  0.007  0.007  0.007  0.000  0.000  0.000  0.000  0.000  0.206
  2  0.185  0.007  0.007  0.007  0.000  0.000  0.000  0.000  0.000  0.206
tot  0.370  0.014  0.014  0.014  0.000  0.000  0.000  0.000  0.000  0.411
 
band   6 # energy    8.96766215 # occ.  0.00000000
 
ion      s     py     pz     px    dxy    dyz    dz2    dxz    dx2    tot
  1  0.000  0.047  0.048  0.000  0.000  0.000  0.000  0.000  0.000  0.095
  2  0.000  0.047  0.048  0.000  0.000  0.000  0.000  0.000  0.000  0.095
tot  0.000  0.095  0.095  0.000  0.000  0.000  0.000  0.000  0.000  0.190
 
band   7 # energy    8.96766227 # occ.  0.00000000
 
ion      s     py     pz     px    dxy    dyz    dz2    dxz    dx2    tot
  1  0.000  0.016  0.016  0.063  0.000  0.000  0.000  0.000  0.000  0.095
  2  0.000  0.016  0.016  0.063  0.000  0.000  0.000  0.000  0.000  0.095
tot  0.000  0.032  0.031  0.127  0.000  0.000  0.000  0.000  0.000  0.190
 
band   8 # energy   13.31932283 # occ.  0.00000000
 
ion      s     py     pz     px    dxy    dyz    dz2    dxz    dx2    tot
  1  0.005  0.018  0.018  0.018  0.000  0.000  0.000  0.000  0.000  0.060
  2  0.005  0.018  0.018  0.018  0.000  0.000  0.000  0.000  0.000  0.060
tot  0.011  0.036  0.036  0.036  0.000  0.000  0.000  0.000  0.000  0.120
 
band   9 # energy   16.11368233 # occ.  0.00000000
 
ion      s     py     pz     px    dxy    dyz    dz2    dxz    dx2    tot
  1  0.000  0.000  0.000  0.000  0.000  0.000  0.000  0.000  0.000  0.000
  2  0.000  0.000  0.000  0.000  0.000  0.000  0.000  0.000  0.000  0.000
tot  0.000  0.000  0.000  0.000  0.000  0.000  0.000  0.000  0.000  0.001
 
band  10 # energy   16.11368250 # occ.  0.00000000
 
ion      s     py     pz     px    dxy    dyz    dz2    dxz    dx2    tot
  1  0.000  0.000  0.000  0.000  0.000  0.000  0.000  0.000  0.000  0.000
  2  0.000  0.000  0.000  0.000  0.000  0.000  0.000  0.000  0.000  0.000
tot  0.000  0.000  0.000  0.000  0.000  0.000  0.000  0.000  0.000  0.001
 
band  11 # energy   16.80149444 # occ.  0.00000000
 
ion      s     py     pz     px    dxy    dyz    dz2    dxz    dx2    tot
  1  0.037  0.045  0.056  0.046  0.000  0.000  0.000  0.000  0.000  0.184
  2  0.036  0.046  0.057  0.047  0.000  0.000  0.000  0.000  0.000  0.186
tot  0.074  0.091  0.113  0.093  0.000  0.000  0.000  0.000  0.000  0.371
 
band  12 # energy   16.83903002 # occ.  0.00000000
 
ion      s     py     pz     px    dxy    dyz    dz2    dxz    dx2    tot
  1  0.000  0.047  0.059  0.010  0.000  0.000  0.000  0.000  0.000  0.115
  2  0.000  0.047  0.059  0.010  0.000  0.000  0.000  0.000  0.000  0.115
tot  0.000  0.093  0.118  0.020  0.000  0.000  0.000  0.000  0.000  0.230
 

 k-point    6 :    0.12500000 0.12500000 0.00000000     weight = 0.01171875

band   1 # energy   -5.92929235 # occ.  1.00000000
 
ion      s     py     pz     px    dxy    dyz    dz2    dxz    dx2    tot
  1  0.211  0.000  0.003  0.000  0.000  0.000  0.000  0.000  0.000  0.213
  2  0.211  0.000  0.003  0.000  0.000  0.000  0.000  0.000  0.000  0.213
tot  0.421  0.000  0.006  0.000  0.000  0.000  0.000  0.000  0.000  0.427
 
band   2 # energy    4.26659980 # occ.  1.00000000
 
ion      s     py     pz     px    dxy    dyz    dz2    dxz    dx2    tot
  1  0.100  0.000  0.143  0.000  0.000  0.000  0.000  0.000  0.000  0.243
  2  0.100  0.000  0.143  0.000  0.000  0.000  0.000  0.000  0.000  0.243
tot  0.200  0.000  0.287  0.000  0.000  0.000  0.000  0.000  0.000  0.487
 
band   3 # energy    4.83194660 # occ.  1.00000000
 
ion      s     py     pz     px    dxy    dyz    dz2    dxz    dx2    tot
  1  0.000  0.102  0.000  0.100  0.000  0.000  0.000  0.000  0.000  0.202
  2  0.000  0.100  0.000  0.101  0.000  0.000  0.000  0.000  0.000  0.202
tot  0.000  0.202  0.000  0.201  0.000  0.000  0.000  0.000  0.000  0.403
 
band   4 # energy    4.83194670 # occ.  1.00000000
 
ion      s     py     pz     px    dxy    dyz    dz2    dxz    dx2    tot
  1  0.000  0.100  0.000  0.102  0.000  0.000  0.000  0.000  0.000  0.202
  2  0.000  0.101  0.000  0.100  0.000  0.000  0.000  0.000  0.000  0.202
tot  0.000  0.201  0.000  0.202  0.000  0.000  0.000  0.000  0.000  0.403
 
band   5 # energy    7.63368676 # occ.  0.00000000
 
ion      s     py     pz     px    dxy    dyz    dz2    dxz    dx2    tot
  1  0.020  0.000  0.118  0.000  0.000  0.000  0.000  0.000  0.000  0.138
  2  0.020  0.000  0.118  0.000  0.000  0.000  0.000  0.000  0.000  0.138
tot  0.040  0.000  0.236  0.000  0.000  0.000  0.000  0.000  0.000  0.276
 
band   6 # energy    9.29031302 # occ.  0.00000000
 
ion      s     py     pz     px    dxy    dyz    dz2    dxz    dx2    tot
  1  0.000  0.080  0.000  0.082  0.000  0.000  0.000  0.000  0.000  0.163
  2  0.000  0.082  0.000  0.081  0.000  0.000  0.000  0.000  0.000  0.163
tot  0.000  0.162  0.000  0.163  0.000  0.000  0.000  0.000  0.000  0.326
 
band   7 # energy    9.29031314 # occ.  0.00000000
 
ion      s     py     pz     px    dxy    dyz    dz2    dxz    dx2    tot
  1  0.000  0.082  0.000  0.080  0.000  0.000  0.000  0.000  0.000  0.163
  2  0.000  0.081  0.000  0.082  0.000  0.000  0.000  0.000  0.000  0.163
tot  0.000  0.163  0.000  0.162  0.000  0.000  0.000  0.000  0.000  0.326
 
band   8 # energy    9.83984624 # occ.  0.00000000
 
ion      s     py     pz     px    dxy    dyz    dz2    dxz    dx2    tot
  1  0.223  0.000  0.077  0.000  0.000  0.000  0.000  0.000  0.000  0.300
  2  0.223  0.000  0.077  0.000  0.000  0.000  0.000  0.000  0.000  0.300
tot  0.446  0.000  0.154  0.000  0.000  0.000  0.000  0.000  0.000  0.600
 
band   9 # energy   12.10259922 # occ.  0.00000000
 
ion      s     py     pz     px    dxy    dyz    dz2    dxz    dx2    tot
  1  0.034  0.000  0.003  0.000  0.000  0.000  0.000  0.000  0.000  0.037
  2  0.034  0.000  0.003  0.000  0.000  0.000  0.000  0.000  0.000  0.037
tot  0.069  0.000  0.005  0.000  0.000  0.000  0.000  0.000  0.000  0.074
 
band  10 # energy   13.62549578 # occ.  0.00000000
 
ion      s     py     pz     px    dxy    dyz    dz2    dxz    dx2    tot
  1  0.000  0.000  0.000  0.000  0.000  0.000  0.000  0.000  0.000  0.000
  2  0.000  0.000  0.000  0.000  0.000  0.000  0.000  0.000  0.000  0.000
tot  0.000  0.000  0.000  0.000  0.000  0.000  0.000  0.000  0.000  0.000
 
band  11 # energy   14.56570632 # occ.  0.00000000
 
ion      s     py     pz     px    dxy    dyz    dz2    dxz    dx2    tot
  1  0.075  0.000  0.038  0.000  0.000  0.000  0.000  0.000  0.000  0.113
  2  0.075  0.000  0.038  0.000  0.000  0.000  0.000  0.000  0.000  0.113
tot  0.150  0.000  0.077  0.000  0.000  0.000  0.000  0.000  0.000  0.226
 
band  12 # energy   17.26759407 # occ.  0.00000000
 
ion      s     py     pz     px    dxy    dyz    dz2    dxz    dx2    tot
  1  0.000  0.025  0.000  0.012  0.000  0.000  0.000  0.000  0.000  0.036
  2  0.000  0.020  0.000  0.016  0.000  0.000  0.000  0.000  0.000  0.036
tot  0.000  0.045  0.000  0.027  0.000  0.000  0.000  0.000  0.000  0.072
 

 k-point    7 :    0.25000000 0.12500000 0.00000000     weight = 0.04687500

band   1 # energy   -5.46913719 # occ.  1.00000000
 
ion      s     py     pz     px    dxy    dyz    dz2    dxz    dx2    tot
  1  0.209  0.001  0.006  0.001  0.000  0.000  0.000  0.000  0.000  0.216
  2  0.209  0.001  0.006  0.001  0.000  0.000  0.000  0.000  0.000  0.216
tot  0.418  0.001  0.013  0.001  0.000  0.000  0.000  0.000  0.000  0.433
 
band   2 # energy    2.41272579 # occ.  1.00000000
 
ion      s     py     pz     px    dxy    dyz    dz2    dxz    dx2    tot
  1  0.110  0.031  0.058  0.031  0.000  0.000  0.000  0.000  0.000  0.229
  2  0.110  0.031  0.058  0.031  0.000  0.000  0.000  0.000  0.000  0.229
tot  0.219  0.061  0.117  0.061  0.000  0.000  0.000  0.000  0.000  0.459
 
band   3 # energy    4.32952968 # occ.  1.00000000
 
ion      s     py     pz     px    dxy    dyz    dz2    dxz    dx2    tot
  1  0.000  0.100  0.000  0.100  0.000  0.000  0.000  0.000  0.000  0.200
  2  0.000  0.100  0.000  0.100  0.000  0.000  0.000  0.000  0.000  0.200
tot  0.000  0.200  0.000  0.200  0.000  0.000  0.000  0.000  0.000  0.401
 
band   4 # energy    4.39328631 # occ.  1.00000000
 
ion      s     py     pz     px    dxy    dyz    dz2    dxz    dx2    tot
  1  0.027  0.050  0.081  0.050  0.000  0.000  0.000  0.000  0.000  0.208
  2  0.027  0.050  0.081  0.050  0.000  0.000  0.000  0.000  0.000  0.208
tot  0.053  0.100  0.162  0.100  0.000  0.000  0.000  0.000  0.000  0.415
 
band   5 # energy    7.76324687 # occ.  0.00000000
 
ion      s     py     pz     px    dxy    dyz    dz2    dxz    dx2    tot
  1  0.032  0.012  0.084  0.012  0.000  0.000  0.000  0.000  0.000  0.140
  2  0.032  0.012  0.084  0.012  0.000  0.000  0.000  0.000  0.000  0.140
tot  0.064  0.024  0.169  0.024  0.000  0.000  0.000  0.000  0.000  0.280
 
band   6 # energy    9.24409687 # occ.  0.00000000
 
ion      s     py     pz     px    dxy    dyz    dz2    dxz    dx2    tot
  1  0.093  0.045  0.029  0.045  0.000  0.000  0.000  0.000  0.000  0.212
  2  0.093  0.045  0.029  0.045  0.000  0.000  0.000  0.000  0.000  0.212
tot  0.186  0.090  0.058  0.090  0.000  0.000  0.000  0.000  0.000  0.424
 
band   7 # energy   10.04603066 # occ.  0.00000000
 
ion      s     py     pz     px    dxy    dyz    dz2    dxz    dx2    tot
  1  0.000  0.078  0.000  0.078  0.000  0.000  0.000  0.000  0.000  0.156
  2  0.000  0.078  0.000  0.078  0.000  0.000  0.000  0.000  0.000  0.156
tot  0.000  0.156  0.000  0.156  0.000  0.000  0.000  0.000  0.000  0.312
 
band   8 # energy   10.35687593 # occ.  0.00000000
 
ion      s     py     pz     px    dxy    dyz    dz2    dxz    dx2    tot
  1  0.023  0.021  0.022  0.021  0.000  0.000  0.000  0.000  0.000  0.087
  2  0.023  0.021  0.022  0.021  0.000  0.000  0.000  0.000  0.000  0.087
tot  0.046  0.042  0.045  0.042  0.000  0.000  0.000  0.000  0.000  0.173
 
band   9 # energy   12.98026862 # occ.  0.00000000
 
ion      s     py     pz     px    dxy    dyz    dz2    dxz    dx2    tot
  1  0.103  0.018  0.054  0.018  0.000  0.000  0.000  0.000  0.000  0.192
  2  0.103  0.018  0.054  0.018  0.000  0.000  0.000  0.000  0.000  0.192
tot  0.205  0.035  0.109  0.035  0.000  0.000  0.000  0.000  0.000  0.384
 
band  10 # energy   13.78672820 # occ.  0.00000000
 
ion      s     py     pz     px    dxy    dyz    dz2    dxz    dx2    tot
  1  0.000  0.004  0.000  0.004  0.000  0.000  0.000  0.000  0.000  0.009
  2  0.000  0.004  0.000  0.004  0.000  0.000  0.000  0.000  0.000  0.009
tot  0.000  0.009  0.000  0.009  0.000  0.000  0.000  0.000  0.000  0.017
 
band  11 # energy   15.55354646 # occ.  0.00000000
 
ion      s     py     pz     px    dxy    dyz    dz2    dxz    dx2    tot
  1  0.038  0.009  0.043  0.009  0.000  0.000  0.000  0.000  0.000  0.098
  2  0.038  0.009  0.043  0.009  0.000  0.000  0.000  0.000  0.000  0.098
tot  0.075  0.018  0.086  0.018  0.000  0.000  0.000  0.000  0.000  0.197
 
band  12 # energy   17.11536423 # occ.  0.00000000
 
ion      s     py     pz     px    dxy    dyz    dz2    dxz    dx2    tot
  1  0.026  0.006  0.021  0.006  0.000  0.000  0.000  0.000  0.000  0.060