<?xml version="1.0" encoding="ISO-8859-1"?>
<modeling>
 <generator>
  <i name="program" type="string">vasp </i>
  <i name="version" type="string">5.3.5  </i>
  <i name="subversion" type="string">31Mar14 (build Jun 21 2016 10:20:01) complex                          parallel </i>
  <i name="platform" type="string">LinuxIFC </i>
  <i name="date" type="string">2018 11 01 </i>
  <i name="time" type="string">16:05:12 </i>
 </generator>
 <incar>
  <i type="string" name="PREC">accurate</i>
  <i type="string" name="ALGO"> Normal</i>
  <i type="int" name="ISPIN">     2</i>
  <i type="int" name="ICHARG">     0</i>
  <i type="int" name="NELM">    60</i>
  <i type="int" name="NELMIN">     5</i>
  <i type="int" name="IBRION">    -1</i>
  <i name="EDIFF">      0.00010000</i>
  <i type="int" name="NSW">     0</i>
  <i type="int" name="ISIF">     3</i>
  <i name="ENCUT">    520.00000000</i>
  <v name="MAGMOM">      0.60000000      0.60000000</v>
  <i type="string" name="LREAL"> Auto</i>
  <i type="int" name="ISMEAR">    -5</i>
  <i name="SIGMA">      0.05000000</i>
  <i type="logical" name="LWAVE"> F  </i>
  <i type="logical" name="LCHARG"> T  </i>
  <i type="logical" name="LVHAR"> T  </i>
  <i type="logical" name="LORBIT"> F  </i>
  <i type="logical" name="LAECHG"> T  </i>
  <i type="int" name="NELM">    60</i>
 </incar>
 <kpoints>
  <generation param="Gamma">
   <v type="int" name="divisions">       8        8        8 </v>
   <v name="usershift">      0.00000000       0.00000000       0.00000000 </v>
   <v name="genvec1">      0.12500000       0.00000000       0.00000000 </v>
   <v name="genvec2">      0.00000000       0.12500000       0.00000000 </v>
   <v name="genvec3">      0.00000000       0.00000000       0.12500000 </v>
   <v name="shift">      0.00000000       0.00000000       0.00000000 </v>
  </generation>
  <varray name="kpointlist" >
   <v>       0.00000000       0.00000000       0.00000000 </v>
   <v>       0.12500000       0.00000000       0.00000000 </v>
   <v>       0.25000000       0.00000000       0.00000000 </v>
   <v>       0.37500000       0.00000000       0.00000000 </v>
   <v>       0.50000000       0.00000000       0.00000000 </v>
   <v>       0.12500000       0.12500000       0.00000000 </v>
   <v>       0.25000000       0.12500000       0.00000000 </v>
   <v>       0.37500000       0.12500000       0.00000000 </v>
   <v>       0.50000000       0.12500000       0.00000000 </v>
   <v>      -0.37500000       0.12500000       0.00000000 </v>
   <v>      -0.25000000       0.12500000       0.00000000 </v>
   <v>      -0.12500000       0.12500000       0.00000000 </v>
   <v>       0.25000000       0.25000000       0.00000000 </v>
   <v>       0.37500000       0.25000000       0.00000000 </v>
   <v>       0.50000000       0.25000000       0.00000000 </v>
   <v>      -0.37500000       0.25000000       0.00000000 </v>
   <v>      -0.25000000       0.25000000       0.00000000 </v>
   <v>       0.37500000       0.37500000       0.00000000 </v>
   <v>       0.50000000       0.37500000       0.00000000 </v>
   <v>      -0.37500000       0.37500000       0.00000000 </v>
   <v>       0.50000000       0.50000000       0.00000000 </v>
   <v>       0.37500000       0.25000000       0.12500000 </v>
   <v>       0.50000000       0.25000000       0.12500000 </v>
   <v>      -0.37500000       0.25000000       0.12500000 </v>
   <v>       0.50000000       0.37500000       0.12500000 </v>
   <v>      -0.37500000       0.37500000       0.12500000 </v>
   <v>      -0.25000000       0.37500000       0.12500000 </v>
   <v>      -0.37500000       0.50000000       0.12500000 </v>
   <v>      -0.25000000       0.50000000       0.25000000 </v>
  </varray>
  <varray name="weights" >
   <v>       0.00195312 </v>
   <v>       0.01562500 </v>
   <v>       0.01562500 </v>
   <v>       0.01562500 </v>
   <v>       0.00781250 </v>
   <v>       0.01171875 </v>
   <v>       0.04687500 </v>
   <v>       0.04687500 </v>
   <v>       0.04687500 </v>
   <v>       0.04687500 </v>
   <v>       0.04687500 </v>
   <v>       0.02343750 </v>
   <v>       0.01171875 </v>
   <v>       0.04687500 </v>
   <v>       0.04687500 </v>
   <v>       0.04687500 </v>
   <v>       0.02343750 </v>
   <v>       0.01171875 </v>
   <v>       0.04687500 </v>
   <v>       0.02343750 </v>
   <v>       0.00585938 </v>
   <v>       0.04687500 </v>
   <v>       0.09375000 </v>
   <v>       0.04687500 </v>
   <v>       0.04687500 </v>
   <v>       0.09375000 </v>
   <v>       0.04687500 </v>
   <v>       0.02343750 </v>
   <v>       0.01171875 </v>
  </varray>
  <varray name="tetrahedronlist"  type="int" >
   <v type="int" >       24        1        2        2        6 </v>
   <v type="int" >       48        2        6        7       12 </v>
   <v type="int" >       48        2        3        7       12 </v>
   <v type="int" >       24        2        2        6       12 </v>
   <v type="int" >       48        3        7        8       11 </v>
   <v type="int" >       48        3        4        8       11 </v>
   <v type="int" >       48        3        7       11       12 </v>
   <v type="int" >       48        4        8        9       10 </v>
   <v type="int" >       48        4        5        9       10 </v>
   <v type="int" >       48        4        8       10       11 </v>
   <v type="int" >       48        5        9        9       10 </v>
   <v type="int" >       24        6        7        7       13 </v>
   <v type="int" >       24        6        7        7       12 </v>
   <v type="int" >       48        7       13       14       22 </v>
   <v type="int" >       48        7        8       14       22 </v>
   <v type="int" >       48        7        8       11       22 </v>
   <v type="int" >       24        7        7       13       22 </v>
   <v type="int" >       24        7        7       12       22 </v>
   <v type="int" >       48        7       11       12       22 </v>
   <v type="int" >       48        8       14       15       23 </v>
   <v type="int" >       48        8        9       15       23 </v>
   <v type="int" >       48        8        9       10       23 </v>
   <v type="int" >       48        8       14       22       23 </v>
   <v type="int" >       48        8       11       22       23 </v>
   <v type="int" >       48        8       10       11       23 </v>
   <v type="int" >       48        9       15       16       24 </v>
   <v type="int" >       48        9       10       16       24 </v>
   <v type="int" >       48        9        9       10       24 </v>
   <v type="int" >       48        9       15       23       24 </v>
   <v type="int" >       48        9       10       23       24 </v>
   <v type="int" >       48       10       16       17       23 </v>
   <v type="int" >       48       10       11       17       23 </v>
   <v type="int" >       48       10       16       23       24 </v>
   <v type="int" >       24       11       11       17       22 </v>
   <v type="int" >       24       11       11       12       22 </v>
   <v type="int" >       48       11       17       22       23 </v>
   <v type="int" >       24       13       14       14       18 </v>
   <v type="int" >       24       13       14       14       22 </v>
   <v type="int" >       48       14       18       19       25 </v>
   <v type="int" >       48       14       15       19       25 </v>
   <v type="int" >       48       14       15       23       25 </v>
   <v type="int" >       24       14       14       18       25 </v>
   <v type="int" >       24       14       14       22       25 </v>
   <v type="int" >       48       14       22       23       25 </v>
   <v type="int" >       48       15       19       20       26 </v>
   <v type="int" >       48       15       16       20       26 </v>
   <v type="int" >       48       15       16       24       26 </v>
   <v type="int" >       48       15       19       25       26 </v>
   <v type="int" >       48       15       23       25       26 </v>
   <v type="int" >       48       15       23       24       26 </v>
   <v type="int" >       24       16       16       20       27 </v>
   <v type="int" >       24       16       16       17       27 </v>
   <v type="int" >       48       16       17       23       27 </v>
   <v type="int" >       48       16       20       26       27 </v>
   <v type="int" >       48       16       24       26       27 </v>
   <v type="int" >       48       16       23       24       27 </v>
   <v type="int" >       24       17       23       23       27 </v>
   <v type="int" >       24       17       22       23       23 </v>
   <v type="int" >       24       18       19       19       21 </v>
   <v type="int" >       24       18       19       19       25 </v>
   <v type="int" >       48       19       19       21       28 </v>
   <v type="int" >       24       19       19       20       28 </v>
   <v type="int" >       48       19       20       26       28 </v>
   <v type="int" >       24       19       19       25       28 </v>
   <v type="int" >       48       19       25       26       28 </v>
   <v type="int" >       24       20       26       26       28 </v>
   <v type="int" >       24       20       26       26       27 </v>
   <v type="int" >       24       22       23       23       25 </v>
   <v type="int" >       48       23       25       26       27 </v>
   <v type="int" >       48       23       24       26       27 </v>
   <v type="int" >       24       23       23       25       27 </v>
   <v type="int" >       48       24       26       26       27 </v>
   <v type="int" >       24       25       26       26       28 </v>
   <v type="int" >       24       25       26       26       27 </v>
   <v type="int" >       48       26       26       28       29 </v>
   <v type="int" >       96       26       26       27       29 </v>
  </varray>
  <i name="volumeweight">      0.00032552 </i>
 </kpoints>
 <parameters>
  <separator name="general" >
   <i type="string" name="SYSTEM">unknown system</i>
   <i type="logical" name="LCOMPAT"> F  </i>
  </separator>
  <separator name="electronic" >
   <i type="string" name="PREC">accura</i>
   <i name="ENMAX">    520.00000000</i>
   <i name="ENAUG">    322.06900000</i>
   <i name="EDIFF">      0.00010000</i>
   <i type="int" name="IALGO">    38</i>
   <i type="int" name="IWAVPR">    10</i>
   <i type="int" name="NBANDS">    12</i>
   <i name="NELECT">      8.00000000</i>
   <i type="int" name="TURBO">     0</i>
   <i type="int" name="IRESTART">     0</i>
   <i type="int" name="NREBOOT">     0</i>
   <i type="int" name="NMIN">     0</i>
   <i name="EREF">      0.00000000</i>
   <separator name="electronic smearing" >
    <i type="int" name="ISMEAR">    -5</i>
    <i name="SIGMA">      0.05000000</i>
    <i name="KSPACING">      0.50000000</i>
    <i type="logical" name="KGAMMA"> T  </i>
   </separator>
   <separator name="electronic projectors" >
    <i type="logical" name="LREAL"> T  </i>
    <v name="ROPT">     -0.00025000</v>
    <i type="int" name="LMAXPAW">  -100</i>
    <i type="int" name="LMAXMIX">     2</i>
    <i type="logical" name="NLSPLINE"> F  </i>
   </separator>
   <separator name="electronic startup" >
    <i type="int" name="ISTART">     0</i>
    <i type="int" name="ICHARG">     0</i>
    <i type="int" name="INIWAV">     1</i>
   </separator>
   <separator name="electronic spin" >
    <i type="int" name="ISPIN">     2</i>
    <i type="logical" name="LNONCOLLINEAR"> F  </i>
    <v name="MAGMOM">      0.60000000      0.60000000</v>
    <i name="NUPDOWN">     -1.00000000</i>
    <i type="logical" name="LSORBIT"> F  </i>
    <v name="SAXIS">      0.00000000      0.00000000      1.00000000</v>
    <i type="logical" name="LSPIRAL"> F  </i>
    <v name="QSPIRAL">      0.00000000      0.00000000      0.00000000</v>
    <i type="logical" name="LZEROZ"> F  </i>
   </separator>
   <separator name="electronic exchange-correlation" >
    <i type="logical" name="LASPH"> F  </i>
    <i type="logical" name="LMETAGGA"> F  </i>
   </separator>
   <separator name="electronic convergence" >
    <i type="int" name="NELM">    60</i>
    <i type="int" name="NELMDL">    -5</i>
    <i type="int" name="NELMIN">     5</i>
    <i name="ENINI">    520.00000000</i>
    <separator name="electronic convergence detail" >
     <i type="logical" name="LDIAG"> T  </i>
     <i type="logical" name="LSUBROT"> F  </i>
     <i name="WEIMIN">      0.00000000</i>
     <i name="EBREAK">      0.00000208</i>
     <i name="DEPER">      0.30000000</i>
     <i type="int" name="NRMM">     4</i>
     <i name="TIME">      0.40000000</i>
    </separator>
   </separator>
   <separator name="electronic mixer" >
    <i name="AMIX">      0.40000000</i>
    <i name="BMIX">      1.00000000</i>
    <i name="AMIN">      0.10000000</i>
    <i name="AMIX_MAG">      1.60000000</i>
    <i name="BMIX_MAG">      1.00000000</i>
    <separator name="electronic mixer details" >
     <i type="int" name="IMIX">     4</i>
     <i type="int" name="MAXMIX">   -45</i>
     <i name="WC">    100.00000000</i>
     <i type="int" name="INIMIX">     1</i>
     <i type="int" name="MIXPRE">     1</i>
     <i type="int" name="MREMOVE">     5</i>
    </separator>
   </separator>
   <separator name="electronic dipolcorrection" >
    <i type="logical" name="LDIPOL"> F  </i>
    <i type="logical" name="LMONO"> F  </i>
    <i type="int" name="IDIPOL">     0</i>
    <i name="EPSILON">      1.00000000</i>
    <v name="DIPOL">   -100.00000000   -100.00000000   -100.00000000</v>
    <i name="EFIELD">      0.00000000</i>
   </separator>
  </separator>
  <separator name="grids" >
   <i type="int" name="NGX">    30</i>
   <i type="int" name="NGY">    30</i>
   <i type="int" name="NGZ">    30</i>
   <i type="int" name="NGXF">    60</i>
   <i type="int" name="NGYF">    60</i>
   <i type="int" name="NGZF">    60</i>
   <i type="logical" name="ADDGRID"> F  </i>
  </separator>
  <separator name="ionic" >
   <i type="int" name="NSW">     0</i>
   <i type="int" name="IBRION">    -1</i>
   <i type="int" name="ISIF">     3</i>
   <i name="PSTRESS">      0.00000000</i>
   <i name="EDIFFG">      0.00100000</i>
   <i type="int" name="NFREE">     0</i>
   <i name="POTIM">      0.50000000</i>
   <i name="SMASS">     -3.00000000</i>
   <i name="SCALEE">      1.00000000</i>
  </separator>
  <separator name="ionic md" >
   <i name="TEBEG">      0.00010000</i>
   <i name="TEEND">      0.00010000</i>
   <i type="int" name="NBLOCK">     1</i>
   <i type="int" name="KBLOCK">     1</i>
   <i type="int" name="NPACO">   256</i>
   <i name="APACO">     16.00000000</i>
  </separator>
  <separator name="symmetry" >
   <i type="int" name="ISYM">     2</i>
   <i name="SYMPREC">      0.00001000</i>
  </separator>
  <separator name="dos" >
   <i type="logical" name="LORBIT"> F  </i>
   <v name="RWIGS">     -1.00000000</v>
   <i type="int" name="NEDOS">   301</i>
   <i name="EMIN">     10.00000000</i>
   <i name="EMAX">    -10.00000000</i>
   <i name="EFERMI">      0.00000000</i>
  </separator>
  <separator name="writing" >
   <i type="int" name="NWRITE">     2</i>
   <i type="logical" name="LWAVE"> F  </i>
   <i type="logical" name="LCHARG"> T  </i>
   <i type="logical" name="LPARD"> F  </i>
   <i type="logical" name="LVTOT"> F  </i>
   <i type="logical" name="LVHAR"> T  </i>
   <i type="logical" name="LELF"> F  </i>
   <i type="logical" name="LOPTICS"> F  </i>
   <v name="STM">      0.00000000      0.00000000      0.00000000      0.00000000      0.00000000      0.00000000      0.00000000</v>
  </separator>
  <separator name="performance" >
   <i type="int" name="NPAR">     4</i>
   <i type="int" name="NSIM">     4</i>
   <i type="int" name="NBLK">    -1</i>
   <i type="logical" name="LPLANE"> T  </i>
   <i type="logical" name="LSCALAPACK"> T  </i>
   <i type="logical" name="LSCAAWARE"> F  </i>
   <i type="logical" name="LSCALU"> F  </i>
   <i type="logical" name="LASYNC"> F  </i>
   <i type="logical" name="LORBITALREAL"> F  </i>
  </separator>
  <separator name="miscellaneous" >
   <i type="int" name="IDIOT">     3</i>
   <i type="logical" name="LMUSIC"> F  </i>
   <v name="POMASS">     28.08500000</v>
   <v name="DARWINR">      0.00000000</v>
   <v name="DARWINV">      1.00000000</v>
   <i type="logical" name="LCORR"> T  </i>
  </separator>
  <i type="logical" name="GGA_COMPAT"> T  </i>
  <i type="logical" name="LBERRY"> F  </i>
  <i type="int" name="ICORELEVEL">     0</i>
  <i type="logical" name="LDAU"> F  </i>
  <i type="int" name="I_CONSTRAINED_M">     0</i>
  <separator name="electronic exchange-correlation" >
   <i type="string" name="GGA">--</i>
   <i type="int" name="VOSKOWN">     0</i>
   <i type="logical" name="LHFCALC"> F  </i>
   <i type="string" name="PRECFOCK"></i>
   <i type="logical" name="LSYMGRAD"> F  </i>
   <i type="logical" name="LHFONE"> F  </i>
   <i type="logical" name="LRHFCALC"> F  </i>
   <i type="logical" name="LTHOMAS"> F  </i>
   <i type="logical" name="LMODELHF"> F  </i>
   <i name="ENCUT4O">     -1.00000000</i>
   <i type="int" name="EXXOEP">     0</i>
   <i type="int" name="FOURORBIT">     0</i>
   <i name="AEXX">      0.00000000</i>
   <i name="HFALPHA">      0.00000000</i>
   <i name="MCALPHA">      0.00000000</i>
   <i name="ALDAX">      1.00000000</i>
   <i name="AGGAX">      1.00000000</i>
   <i name="ALDAC">      1.00000000</i>
   <i name="AGGAC">      1.00000000</i>
   <i type="int" name="NKREDX">     1</i>
   <i type="int" name="NKREDY">     1</i>
   <i type="int" name="NKREDZ">     1</i>
   <i type="logical" name="SHIFTRED"> F  </i>
   <i type="logical" name="ODDONLY"> F  </i>
   <i type="logical" name="EVENONLY"> F  </i>
   <i type="int" name="LMAXFOCK">     0</i>
   <i type="int" name="NMAXFOCKAE">     0</i>
   <i type="logical" name="LFOCKAEDFT"> F  </i>
   <i name="HFSCREEN">      0.00000000</i>
   <i name="HFSCREENC">      0.00000000</i>
   <i type="int" name="NBANDSGWLOW">     0</i>
  </separator>
  <separator name="vdW DFT" >
   <i type="logical" name="LUSE_VDW"> F  </i>
   <i name="Zab_VDW">     -0.84910000</i>
   <i name="PARAM1">      0.12340000</i>
   <i name="PARAM2">      1.00000000</i>
   <i name="PARAM3">      0.00000000</i>
  </separator>
  <separator name="model GW" >
   <i type="int" name="MODEL_GW">     0</i>
   <i name="MODEL_EPS0">     12.26504789</i>
   <i name="MODEL_ALPHA">      1.00000000</i>
  </separator>
  <separator name="linear response parameters" >
   <i type="logical" name="LEPSILON"> F  </i>
   <i type="logical" name="LRPA"> F  </i>
   <i type="logical" name="LNABLA"> F  </i>
   <i type="logical" name="LVEL"> F  </i>
   <i type="int" name="KINTER">     0</i>
   <i name="CSHIFT">      0.10000000</i>
   <i name="OMEGAMAX">     -1.00000000</i>
   <i name="DEG_THRESHOLD">      0.00200000</i>
  </separator>
  <separator name="orbital magnetization" >
   <i type="logical" name="NUCIND"> F  </i>
   <v name="MAGPOS">      0.00000000      0.00000000      0.00000000</v>
   <i type="logical" name="LNICSALL"> T  </i>
   <i type="logical" name="ORBITALMAG"> F  </i>
   <i type="logical" name="LMAGBLOCH"> F  </i>
   <i type="logical" name="LCHIMAG"> F  </i>
   <i type="logical" name="LGAUGE"> T  </i>
   <i type="int" name="MAGATOM">     0</i>
   <v name="MAGDIPOL">      0.00000000      0.00000000      0.00000000</v>
   <v name="AVECCONST">      0.00000000      0.00000000      0.00000000</v>
  </separator>
  <separator name="response functions" >
   <i type="logical" name="LADDER"> F  </i>
   <i type="logical" name="LFXC"> F  </i>
   <i type="logical" name="LHARTREE"> T  </i>
   <i type="int" name="IBSE">     0</i>
   <i type="logical" name="LTCTE"> F  </i>
   <i type="logical" name="LTETE"> F  </i>
   <i type="logical" name="LTRIPLET"> F  </i>
   <i type="logical" name="LFXCEPS"> F  </i>
   <i type="logical" name="LFXHEG"> F  </i>
   <i type="logical" name="L2ORDER"> F  </i>
   <i type="logical" name="LUSEW"> F  </i>
   <i name="ENCUTGW">     -2.00000000</i>
   <i name="ENCUTGWSOFT">     -2.00000000</i>
   <i name="ENCUTLF">     -1.00000000</i>
   <i type="int" name="LMAXMP2">    -1</i>
   <i name="SCISSOR">      0.00000000</i>
   <i type="int" name="NOMEGA">     0</i>
   <i type="int" name="NOMEGAR">     0</i>
   <i type="int" name="NBANDSGW">    -1</i>
   <i type="int" name="NBANDSO">    -1</i>
   <i type="int" name="NBANDSV">    -1</i>
   <i type="int" name="NELM">    60</i>
   <i type="int" name="DIM">     3</i>
   <i type="int" name="ANTIRES">     0</i>
   <i name="OMEGAMAX">    -30.00000000</i>
   <i name="OMEGAMIN">    -30.00000000</i>
   <i name="OMEGATL">   -200.00000000</i>
   <i type="int" name="OMEGAGRID">     0</i>
   <i name="CSHIFT">     -0.10000000</i>
   <i type="logical" name="SELFENERGY"> F  </i>
   <i type="logical" name="LSPECTRAL"> F  </i>
   <i type="logical" name="ODDONLYGW"> F  </i>
   <i type="logical" name="EVENONLYGW"> F  </i>
   <i type="int" name="NKREDLFX">     1</i>
   <i type="int" name="NKREDLFY">     1</i>
   <i type="int" name="NKREDLFZ">     1</i>
   <i type="int" name="MAXMEM">  1800</i>
   <i type="int" name="TELESCOPE">     0</i>
   <i type="int" name="TAUPAR">     1</i>
  </separator>
  <separator name="External order field" >
   <i name="OFIELD_KAPPA">      0.00000000</i>
   <v name="OFIELD_K">      0.00000000      0.00000000      0.00000000</v>
   <i name="OFIELD_Q6_NEAR">      0.00000000</i>
   <i name="OFIELD_Q6_FAR">      0.00000000</i>
   <i name="OFIELD_A">      0.00000000</i>
  </separator>
 </parameters>
 <atominfo>
  <atoms>       2 </atoms>
  <types>       1 </types>
  <array name="atoms" >
   <dimension dim="1">ion</dimension>
   <field type="string">element</field>
   <field type="int">atomtype</field>
   <set>
    <rc><c>Si</c><c>   1</c></rc>
    <rc><c>Si</c><c>   1</c></rc>
   </set>
  </array>
  <array name="atomtypes" >
   <dimension dim="1">type</dimension>
   <field type="int">atomspertype</field>
   <field type="string">element</field>
   <field>mass</field>
   <field>valence</field>
   <field type="string">pseudopotential</field>
   <set>
    <rc><c>   2</c><c>Si</c><c>     28.08500000</c><c>      4.00000000</c><c>  PAW_PBE Si 05Jan2001                  </c></rc>
   </set>
  </array>
 </atominfo>
 <structure name="initialpos" >
  <crystal>
   <varray name="basis" >
    <v>       0.00000000       2.73425700       2.73425700 </v>
    <v>       2.73425700       0.00000000       2.73425700 </v>
    <v>       2.73425700       2.73425700       0.00000000 </v>
   </varray>
   <i name="volume">     40.88349297 </i>
   <varray name="rec_basis" >
    <v>      -0.18286503       0.18286503       0.18286503 </v>
    <v>       0.18286503      -0.18286503       0.18286503 </v>
    <v>       0.18286503       0.18286503      -0.18286503 </v>
   </varray>
  </crystal>
  <varray name="positions" >
   <v>       0.00000000       0.00000000       0.00000000 </v>
   <v>       0.25000000       0.25000000       0.25000000 </v>
  </varray>
 </structure>
 <calculation>
  <scstep>
   <time name="dav">   21.49    3.63</time>
   <time name="total">   22.74    3.84</time>
   <energy>
    <i name="alphaZ">      3.29356700 </i>
    <i name="ewald">   -226.95378312 </i>
    <i name="hartreedc">     -7.25776909 </i>
    <i name="XCdc">    -19.17103329 </i>
    <i name="pawpsdc">**************** </i>
    <i name="pawaedc">**************** </i>
    <i name="eentropy">      0.00000000 </i>
    <i name="bandstr">      7.22494229 </i>
    <i name="atom">    206.13270273 </i>
    <i name="e_fr_energy">     -0.01774580 </i>
    <i name="e_wo_entrp">     -0.01774580 </i>
    <i name="e_0_energy">     -0.01774580 </i>
   </energy>
  </scstep>
  <scstep>
   <time name="dav">   21.29    4.02</time>
   <time name="total">   21.34    4.03</time>
   <energy>
    <i name="e_fr_energy">    -18.65171392 </i>
    <i name="e_wo_entrp">    -18.65171392 </i>
    <i name="e_0_energy">    -18.65171392 </i>
   </energy>
  </scstep>
  <scstep>
   <time name="dav">   12.78    2.49</time>
   <time name="total">   14.43    2.99</time>
   <energy>
    <i name="e_fr_energy">    -19.26777425 </i>
    <i name="e_wo_entrp">    -19.26777425 </i>
    <i name="e_0_energy">    -19.26777425 </i>
   </energy>
  </scstep>
  <scstep>
   <time name="dav">   13.02    2.55</time>
   <time name="total">   13.06    2.55</time>
   <energy>
    <i name="e_fr_energy">    -19.27338668 </i>
    <i name="e_wo_entrp">    -19.27338668 </i>
    <i name="e_0_energy">    -19.27338668 </i>
   </energy>
  </scstep>
  <scstep>
   <time name="dav">   18.67    3.42</time>
   <time name="total">   18.83    3.45</time>
   <energy>
    <i name="e_fr_energy">    -19.27346175 </i>
    <i name="e_wo_entrp">    -19.27346175 </i>
    <i name="e_0_energy">    -19.27346175 </i>
   </energy>
  </scstep>
  <scstep>
   <time name="dav">   11.13    2.22</time>
   <time name="total">   12.10    2.44</time>
   <energy>
    <i name="e_fr_energy">    -13.48844284 </i>
    <i name="e_wo_entrp">    -13.48844284 </i>
    <i name="e_0_energy">    -13.48844284 </i>
   </energy>
  </scstep>
  <scstep>
   <time name="dav">   17.18    3.18</time>
   <time name="total">   18.42    3.42</time>
   <energy>
    <i name="e_fr_energy">    -10.80243864 </i>
    <i name="e_wo_entrp">    -10.80243864 </i>
    <i name="e_0_energy">    -10.80243864 </i>
   </energy>
  </scstep>
  <scstep>
   <time name="dav">   16.06    3.17</time>
   <time name="total">   17.38    3.42</time>
   <energy>
    <i name="e_fr_energy">    -10.83215322 </i>
    <i name="e_wo_entrp">    -10.83215322 </i>
    <i name="e_0_energy">    -10.83215322 </i>
   </energy>
  </scstep>
  <scstep>
   <time name="dav">   12.87    2.49</time>
   <time name="total">   14.20    2.75</time>
   <energy>
    <i name="e_fr_energy">    -10.83811860 </i>
    <i name="e_wo_entrp">    -10.83811860 </i>
    <i name="e_0_energy">    -10.83811860 </i>
   </energy>
  </scstep>
  <scstep>
   <time name="dav">   13.56    2.83</time>
   <time name="total">   14.31    2.99</time>
   <energy>
    <i name="e_fr_energy">    -10.84613554 </i>
    <i name="e_wo_entrp">    -10.84613554 </i>
    <i name="e_0_energy">    -10.84613554 </i>
   </energy>
  </scstep>
  <scstep>
   <time name="dav">   16.61    3.37</time>
   <time name="total">   17.85    3.61</time>
   <energy>
    <i name="e_fr_energy">    -10.84640029 </i>
    <i name="e_wo_entrp">    -10.84640029 </i>
    <i name="e_0_energy">    -10.84640029 </i>
   </energy>
  </scstep>
  <scstep>
   <time name="dav">   20.21    3.94</time>
   <time name="total">   21.18    4.13</time>
   <energy>
    <i name="e_fr_energy">    -10.84682294 </i>
    <i name="e_wo_entrp">    -10.84682294 </i>
    <i name="e_0_energy">    -10.84682294 </i>
   </energy>
  </scstep>
  <scstep>
   <time name="dav">   12.20    2.49</time>
   <time name="total">   13.14    2.68</time>
   <energy>
    <i name="alphaZ">      3.29356700 </i>
    <i name="ewald">   -226.95378312 </i>
    <i name="hartreedc">    -15.18185071 </i>
    <i name="XCdc">    -18.05822805 </i>
    <i name="pawpsdc">    829.98914203 </i>
    <i name="pawaedc">   -795.00881033 </i>
    <i name="eentropy">      0.00000000 </i>
    <i name="bandstr">      4.94043169 </i>
    <i name="atom">    206.13270273 </i>
    <i name="e_fr_energy">    -10.84682876 </i>
    <i name="e_wo_entrp">    -10.84682876 </i>
    <i name="e_0_energy">    -10.84682876 </i>
   </energy>
  </scstep>
  <structure>
   <crystal>
    <varray name="basis" >
     <v>       0.00000000       2.73425700       2.73425700 </v>
     <v>       2.73425700       0.00000000       2.73425700 </v>
     <v>       2.73425700       2.73425700       0.00000000 </v>
    </varray>
    <i name="volume">     40.88349297 </i>
    <varray name="rec_basis" >
     <v>      -0.18286503       0.18286503       0.18286503 </v>
     <v>       0.18286503      -0.18286503       0.18286503 </v>
     <v>       0.18286503       0.18286503      -0.18286503 </v>
    </varray>
   </crystal>
   <varray name="positions" >
    <v>       0.00000000       0.00000000       0.00000000 </v>
    <v>       0.25000000       0.25000000       0.25000000 </v>
   </varray>
  </structure>
  <varray name="forces" >
   <v>       0.00000000       0.00000000       0.00000000 </v>
   <v>      -0.00000000      -0.00000000      -0.00000000 </v>
  </varray>
  <varray name="stress" >
   <v>       0.34757851       0.00000000      -0.00000000 </v>
   <v>      -0.00000000       0.34757851       0.00000000 </v>
   <v>       0.00000000       0.00000000       0.34757851 </v>
  </varray>
  <energy>
   <i name="e_fr_energy">    -10.84682876 </i>
   <i name="e_wo_entrp">    -10.84682876 </i>
   <i name="e_0_energy">      0.00000000 </i>
  </energy>
  <time name="totalsc">  233.40   45.40</time>
  <eigenvalues>
   <array>
    <dimension dim="1">band</dimension>
    <dimension dim="2">kpoint</dimension>
    <dimension dim="3">spin</dimension>
    <field>eigene</field>
    <field>occ</field>
    <set>
     <set comment="spin 1">
      <set comment="kpoint 1">
       <r>   -6.1974    1.0000 </r>
       <r>    5.6187    1.0000 </r>
       <r>    5.6187    1.0000 </r>
       <r>    5.6187    1.0000 </r>
       <r>    8.1751    0.0000 </r>
       <r>    8.1751    0.0000 </r>
       <r>    8.1751    0.0000 </r>
       <r>    8.7538    0.0000 </r>
       <r>   13.3272    0.0000 </r>
       <r>   13.3272    0.0000 </r>
       <r>   13.4952    0.0000 </r>
       <r>   16.8011    0.0000 </r>
      </set>
      <set comment="kpoint 2">
       <r>   -5.9969    1.0000 </r>
       <r>    4.0278    1.0000 </r>
       <r>    5.3362    1.0000 </r>
       <r>    5.3362    1.0000 </r>
       <r>    8.0618    0.0000 </r>
       <r>    8.5907    0.0000 </r>
       <r>    8.5907    0.0000 </r>
       <r>   10.1524    0.0000 </r>
       <r>   12.8543    0.0000 </r>
       <r>   12.8543    0.0000 </r>
       <r>   14.2712    0.0000 </r>
       <r>   16.2468    0.0000 </r>
      </set>
      <set comment="kpoint 3">
       <r>   -5.4124    1.0000 </r>
       <r>    1.7320    1.0000 </r>
       <r>    4.8735    1.0000 </r>
       <r>    4.8735    1.0000 </r>
       <r>    7.5781    0.0000 </r>
       <r>    9.1085    0.0000 </r>
       <r>    9.1085    0.0000 </r>
       <r>   12.3706    0.0000 </r>
       <r>   12.8055    0.0000 </r>
       <r>   12.8055    0.0000 </r>
       <r>   14.5476    0.0000 </r>
       <r>   17.3302    0.0000 </r>
      </set>
      <set comment="kpoint 4">
       <r>   -4.5377    1.0000 </r>
       <r>   -0.2527    1.0000 </r>
       <r>    4.5507    1.0000 </r>
       <r>    4.5507    1.0000 </r>
       <r>    7.2135    0.0000 </r>
       <r>    9.0714    0.0000 </r>
       <r>    9.0714    0.0000 </r>
       <r>   13.4552    0.0000 </r>
       <r>   14.1578    0.0000 </r>
       <r>   14.1578    0.0000 </r>
       <r>   15.1315    0.0000 </r>
       <r>   19.2402    0.0000 </r>
      </set>
      <set comment="kpoint 5">
       <r>   -3.9182    1.0000 </r>
       <r>   -1.2509    1.0000 </r>
       <r>    4.4400    1.0000 </r>
       <r>    4.4400    1.0000 </r>
       <r>    7.0854    0.0000 </r>
       <r>    8.9677    0.0000 </r>
       <r>    8.9677    0.0000 </r>
       <r>   13.3193    0.0000 </r>
       <r>   16.1137    0.0000 </r>
       <r>   16.1137    0.0000 </r>
       <r>   16.8015    0.0000 </r>
       <r>   16.8390    0.0000 </r>
      </set>
      <set comment="kpoint 6">
       <r>   -5.9293    1.0000 </r>
       <r>    4.2666    1.0000 </r>
       <r>    4.8319    1.0000 </r>
       <r>    4.8319    1.0000 </r>
       <r>    7.6337    0.0000 </r>
       <r>    9.2903    0.0000 </r>
       <r>    9.2903    0.0000 </r>
       <r>    9.8398    0.0000 </r>
       <r>   12.1026    0.0000 </r>
       <r>   13.6255    0.0000 </r>
       <r>   14.5657    0.0000 </r>
       <r>   17.2676    0.0000 </r>
      </set>
      <set comment="kpoint 7">
       <r>   -5.4691    1.0000 </r>
       <r>    2.4127    1.0000 </r>
       <r>    4.3295    1.0000 </r>
       <r>    4.3933    1.0000 </r>
       <r>    7.7632    0.0000 </r>
       <r>    9.2441    0.0000 </r>
       <r>   10.0460    0.0000 </r>
       <r>   10.3569    0.0000 </r>
       <r>   12.9803    0.0000 </r>
       <r>   13.7867    0.0000 </r>
       <r>   15.5535    0.0000 </r>
       <r>   17.1154    0.0000 </r>
      </set>
      <set comment="kpoint 8">
       <r>   -4.6704    1.0000 </r>
       <r>    0.3905    1.0000 </r>
       <r>    3.8099    1.0000 </r>
       <r>    4.0646    1.0000 </r>
       <r>    7.8465    0.0000 </r>
       <r>    9.2115    0.0000 </r>
       <r>   10.0601    0.0000 </r>
       <r>   11.0577    0.0000 </r>
       <r>   14.8881    0.0000 </r>
       <r>   14.8993    0.0000 </r>
       <r>   15.4098    0.0000 </r>
       <r>   18.8902    0.0000 </r>
      </set>
      <set comment="kpoint 9">
       <r>   -3.8313    1.0000 </r>
       <r>   -1.0402    1.0000 </r>
       <r>    3.3728    1.0000 </r>
       <r>    4.0866    1.0000 </r>
       <r>    7.7816    0.0000 </r>
       <r>    9.1071    0.0000 </r>
       <r>    9.7118    0.0000 </r>
       <r>   12.9230    0.0000 </r>
       <r>   14.5612    0.0000 </r>
       <r>   16.0354    0.0000 </r>
       <r>   17.0208    0.0000 </r>
       <r>   17.1575    0.0000 </r>
      </set>
      <set comment="kpoint 10">
       <r>   -4.0686    1.0000 </r>
       <r>   -0.6789    1.0000 </r>
       <r>    3.1976    1.0000 </r>
       <r>    4.3759    1.0000 </r>
       <r>    7.9313    0.0000 </r>
       <r>    9.2260    0.0000 </r>
       <r>    9.4823    0.0000 </r>
       <r>   13.4461    0.0000 </r>
       <r>   13.6773    0.0000 </r>
       <r>   14.7530    0.0000 </r>
       <r>   16.6961    0.0000 </r>
       <r>   17.9015    0.0000 </r>
      </set>
      <set comment="kpoint 11">
       <r>   -4.9705    1.0000 </r>
       <r>    1.0369    1.0000 </r>
       <r>    3.3518    1.0000 </r>
       <r>    4.8572    1.0000 </r>
       <r>    8.2747    0.0000 </r>
       <r>    9.2799    0.0000 </r>
       <r>    9.4539    0.0000 </r>
       <r>   11.8301    0.0000 </r>
       <r>   12.0943    0.0000 </r>
       <r>   15.3636    0.0000 </r>
       <r>   15.5777    0.0000 </r>
       <r>   17.9210    0.0000 </r>
      </set>
      <set comment="kpoint 12">
       <r>   -5.6668    1.0000 </r>
       <r>    2.9441    1.0000 </r>
       <r>    4.0292    1.0000 </r>
       <r>    5.3289    1.0000 </r>
       <r>    8.5877    0.0000 </r>
       <r>    8.7276    0.0000 </r>
       <r>    8.9493    0.0000 </r>
       <r>   11.0495    0.0000 </r>
       <r>   11.9740    0.0000 </r>
       <r>   13.5844    0.0000 </r>
       <r>   15.2739    0.0000 </r>
       <r>   16.7321    0.0000 </r>
      </set>
      <set comment="kpoint 13">
       <r>   -5.1347    1.0000 </r>
       <r>    2.1002    1.0000 </r>
       <r>    3.7697    1.0000 </r>
       <r>    3.7697    1.0000 </r>
       <r>    6.7694    0.0000 </r>
       <r>    8.7538    0.0000 </r>
       <r>   11.3085    0.0000 </r>
       <r>   11.3085    0.0000 </r>
       <r>   13.4886    0.0000 </r>
       <r>   14.5187    0.0000 </r>
       <r>   16.9197    0.0000 </r>
       <r>   18.5365    0.0000 </r>
      </set>
      <set comment="kpoint 14">
       <r>   -4.4381    1.0000 </r>
       <r>    0.7032    1.0000 </r>
       <r>    3.0036    1.0000 </r>
       <r>    3.4567    1.0000 </r>
       <r>    6.9889    0.0000 </r>
       <r>    8.5211    0.0000 </r>
       <r>   11.5278    0.0000 </r>
       <r>   11.8258    0.0000 </r>
       <r>   15.5422    0.0000 </r>
       <r>   15.5910    0.0000 </r>
       <r>   17.1659    0.0000 </r>
       <r>   18.7054    0.0000 </r>
      </set>
      <set comment="kpoint 15">
       <r>   -3.5329    1.0000 </r>
       <r>   -0.7054    1.0000 </r>
       <r>    2.1555    1.0000 </r>
       <r>    3.4586    1.0000 </r>
       <r>    7.1597    0.0000 </r>
       <r>   10.0501    0.0000 </r>
       <r>   11.2655    0.0000 </r>
       <r>   11.4956    0.0000 </r>
       <r>   15.7053    0.0000 </r>
       <r>   16.0794    0.0000 </r>
       <r>   17.6683    0.0000 </r>
       <r>   18.1413    0.0000 </r>
      </set>
      <set comment="kpoint 16">
       <r>   -3.3357    1.0000 </r>
       <r>   -0.9554    1.0000 </r>
       <r>    1.7080    1.0000 </r>
       <r>    3.7699    1.0000 </r>
       <r>    7.4740    0.0000 </r>
       <r>   11.0202    0.0000 </r>
       <r>   11.0612    0.0000 </r>
       <r>   12.5023    0.0000 </r>
       <r>   13.5121    0.0000 </r>
       <r>   13.5663    0.0000 </r>
       <r>   18.0970    0.0000 </r>
       <r>   20.3012    0.0000 </r>
      </set>
      <set comment="kpoint 17">
       <r>   -4.1930    1.0000 </r>
       <r>    0.1789    1.0000 </r>
       <r>    1.9487    1.0000 </r>
       <r>    4.3162    1.0000 </r>
       <r>    8.0562    0.0000 </r>
       <r>   10.3673    0.0000 </r>
       <r>   10.7020    0.0000 </r>
       <r>   11.6603    0.0000 </r>
       <r>   12.0721    0.0000 </r>
       <r>   15.1407    0.0000 </r>
       <r>   18.1127    0.0000 </r>
       <r>   18.6492    0.0000 </r>
      </set>
      <set comment="kpoint 18">
       <r>   -3.8460    1.0000 </r>
       <r>   -0.0938    1.0000 </r>
       <r>    3.0656    1.0000 </r>
       <r>    3.0656    1.0000 </r>
       <r>    6.2681    0.0000 </r>
       <r>    7.1936    0.0000 </r>
       <r>   13.5565    0.0000 </r>
       <r>   13.5565    0.0000 </r>
       <r>   16.0012    0.0000 </r>
       <r>   16.1029    0.0000 </r>
       <r>   18.5036    0.0000 </r>
       <r>   18.5036    0.0000 </r>
      </set>
      <set comment="kpoint 19">
       <r>   -2.9665    1.0000 </r>
       <r>   -1.1605    1.0000 </r>
       <r>    2.2597    1.0000 </r>
       <r>    2.9904    1.0000 </r>
       <r>    6.5486    0.0000 </r>
       <r>    7.6030    0.0000 </r>
       <r>   13.7934    0.0000 </r>
       <r>   13.8495    0.0000 </r>
       <r>   16.2379    0.0000 </r>
       <r>   16.3385    0.0000 </r>
       <r>   17.8350    0.0000 </r>
       <r>   18.2582    0.0000 </r>
      </set>
      <set comment="kpoint 20">
       <r>   -2.5431    1.0000 </r>
       <r>   -1.5458    1.0000 </r>
       <r>    1.4172    1.0000 </r>
       <r>    3.2426    1.0000 </r>
       <r>    6.8520    0.0000 </r>
       <r>    9.7304    0.0000 </r>
       <r>   12.9997    0.0000 </r>
       <r>   13.5353    0.0000 </r>
       <r>   13.7023    0.0000 </r>
       <r>   14.0989    0.0000 </r>
       <r>   20.1214    0.0000 </r>
       <r>   20.3849    0.0000 </r>
      </set>
      <set comment="kpoint 21">
       <r>   -2.1283    1.0000 </r>
       <r>   -2.1283    1.0000 </r>
       <r>    2.8241    1.0000 </r>
       <r>    2.8241    1.0000 </r>
       <r>    6.3692    0.0000 </r>
       <r>    6.3692    0.0000 </r>
       <r>   15.5561    0.0000 </r>
       <r>   15.5561    0.0000 </r>
       <r>   16.5260    0.0000 </r>
       <r>   16.5260    0.0000 </r>
       <r>   18.0616    0.0000 </r>
       <r>   18.1624    0.0000 </r>
      </set>
      <set comment="kpoint 22">
       <r>   -4.8923    1.0000 </r>
       <r>    1.3503    1.0000 </r>
       <r>    2.9660    1.0000 </r>
       <r>    4.2183    1.0000 </r>
       <r>    8.0615    0.0000 </r>
       <r>    9.4463    0.0000 </r>
       <r>    9.8211    0.0000 </r>
       <r>   11.0599    0.0000 </r>
       <r>   13.3322    0.0000 </r>
       <r>   15.7252    0.0000 </r>
       <r>   16.5836    0.0000 </r>
       <r>   17.6507    0.0000 </r>
      </set>
      <set comment="kpoint 23">
       <r>   -4.0227    1.0000 </r>
       <r>   -0.1696    1.0000 </r>
       <r>    2.3620    1.0000 </r>
       <r>    3.7307    1.0000 </r>
       <r>    8.4828    0.0000 </r>
       <r>    9.1484    0.0000 </r>
       <r>   10.5964    0.0000 </r>
       <r>   11.4973    0.0000 </r>
       <r>   14.5501    0.0000 </r>
       <r>   15.2459    0.0000 </r>
       <r>   17.5213    0.0000 </r>
       <r>   18.3695    0.0000 </r>
      </set>
      <set comment="kpoint 24">
       <r>   -3.3883    1.0000 </r>
       <r>   -1.0894    1.0000 </r>
       <r>    2.2306    1.0000 </r>
       <r>    3.5076    1.0000 </r>
       <r>    8.6426    0.0000 </r>
       <r>    8.7644    0.0000 </r>
       <r>   11.4660    0.0000 </r>
       <r>   12.6848    0.0000 </r>
       <r>   12.9264    0.0000 </r>
       <r>   16.1268    0.0000 </r>
       <r>   17.1731    0.0000 </r>
       <r>   17.8938    0.0000 </r>
      </set>
      <set comment="kpoint 25">
       <r>   -3.6526    1.0000 </r>
       <r>   -0.3091    1.0000 </r>
       <r>    2.3301    1.0000 </r>
       <r>    2.9222    1.0000 </r>
       <r>    7.5740    0.0000 </r>
       <r>    8.2769    0.0000 </r>
       <r>   11.3043    0.0000 </r>
       <r>   13.5078    0.0000 </r>
       <r>   15.6754    0.0000 </r>
       <r>   15.7293    0.0000 </r>
       <r>   18.3052    0.0000 </r>
       <r>   18.8075    0.0000 </r>
      </set>
      <set comment="kpoint 26">
       <r>   -2.7988    1.0000 </r>
       <r>   -1.2578    1.0000 </r>
       <r>    1.6497    1.0000 </r>
       <r>    2.7261    1.0000 </r>
       <r>    8.0133    0.0000 </r>
       <r>    9.8873    0.0000 </r>
       <r>   10.8317    0.0000 </r>
       <r>   12.9712    0.0000 </r>
       <r>   13.9274    0.0000 </r>
       <r>   16.5801    0.0000 </r>
       <r>   17.6922    0.0000 </r>
       <r>   19.8050    0.0000 </r>
      </set>
      <set comment="kpoint 27">
       <r>   -3.1425    1.0000 </r>
       <r>   -0.8999    1.0000 </r>
       <r>    1.4873    1.0000 </r>
       <r>    3.0928    1.0000 </r>
       <r>    8.4829    0.0000 </r>
       <r>   10.1331    0.0000 </r>
       <r>   10.7849    0.0000 </r>
       <r>   12.5821    0.0000 </r>
       <r>   13.3857    0.0000 </r>
       <r>   14.7662    0.0000 </r>
       <r>   19.5565    0.0000 </r>
       <r>   19.7593    0.0000 </r>
      </set>
      <set comment="kpoint 28">
       <r>   -2.0545    1.0000 </r>
       <r>   -2.0545    1.0000 </r>
       <r>    2.2787    1.0000 </r>
       <r>    2.2787    1.0000 </r>
       <r>    7.6040    0.0000 </r>
       <r>    7.6040    0.0000 </r>
       <r>   13.3711    0.0000 </r>
       <r>   13.3711    0.0000 </r>
       <r>   16.0733    0.0000 </r>
       <r>   16.0733    0.0000 </r>
       <r>   18.3408    0.0000 </r>
       <r>   18.3408    0.0000 </r>
      </set>
      <set comment="kpoint 29">
       <r>   -1.9736    1.0000 </r>
       <r>   -1.9736    1.0000 </r>
       <r>    1.8567    1.0000 </r>
       <r>    1.8567    1.0000 </r>
       <r>    9.8882    0.0000 </r>
       <r>    9.8882    0.0000 </r>
       <r>   10.5507    0.0000 </r>
       <r>   10.5507    0.0000 </r>
       <r>   16.0711    0.0000 </r>
       <r>   16.0711    0.0000 </r>
       <r>   18.4905    0.0000 </r>
       <r>   18.4905    0.0000 </r>
      </set>
     </set>
     <set comment="spin 2">
      <set comment="kpoint 1">
       <r>   -6.1974    1.0000 </r>
       <r>    5.6187    1.0000 </r>
       <r>    5.6187    1.0000 </r>
       <r>    5.6187    1.0000 </r>
       <r>    8.1752    0.0000 </r>
       <r>    8.1752    0.0000 </r>
       <r>    8.1752    0.0000 </r>
       <r>    8.7538    0.0000 </r>
       <r>   13.3274    0.0000 </r>
       <r>   13.3274    0.0000 </r>
       <r>   13.4957    0.0000 </r>
       <r>   16.8001    0.0000 </r>
      </set>
      <set comment="kpoint 2">
       <r>   -5.9969    1.0000 </r>
       <r>    4.0278    1.0000 </r>
       <r>    5.3362    1.0000 </r>
       <r>    5.3362    1.0000 </r>
       <r>    8.0619    0.0000 </r>
       <r>    8.5908    0.0000 </r>
       <r>    8.5908    0.0000 </r>
       <r>   10.1524    0.0000 </r>
       <r>   12.8543    0.0000 </r>
       <r>   12.8543    0.0000 </r>
       <r>   14.2716    0.0000 </r>
       <r>   16.2466    0.0000 </r>
      </set>
      <set comment="kpoint 3">
       <r>   -5.4124    1.0000 </r>
       <r>    1.7320    1.0000 </r>
       <r>    4.8735    1.0000 </r>
       <r>    4.8735    1.0000 </r>
       <r>    7.5781    0.0000 </r>
       <r>    9.1085    0.0000 </r>
       <r>    9.1085    0.0000 </r>
       <r>   12.3708    0.0000 </r>
       <r>   12.8053    0.0000 </r>
       <r>   12.8053    0.0000 </r>
       <r>   14.5479    0.0000 </r>
       <r>   17.3307    0.0000 </r>
      </set>
      <set comment="kpoint 4">
       <r>   -4.5377    1.0000 </r>
       <r>   -0.2527    1.0000 </r>
       <r>    4.5507    1.0000 </r>
       <r>    4.5507    1.0000 </r>
       <r>    7.2135    0.0000 </r>
       <r>    9.0713    0.0000 </r>
       <r>    9.0713    0.0000 </r>
       <r>   13.4559    0.0000 </r>
       <r>   14.1576    0.0000 </r>
       <r>   14.1576    0.0000 </r>
       <r>   15.1316    0.0000 </r>
       <r>   19.2402    0.0000 </r>
      </set>
      <set comment="kpoint 5">
       <r>   -3.9182    1.0000 </r>
       <r>   -1.2509    1.0000 </r>
       <r>    4.4401    1.0000 </r>
       <r>    4.4401    1.0000 </r>
       <r>    7.0853    0.0000 </r>
       <r>    8.9675    0.0000 </r>
       <r>    8.9675    0.0000 </r>
       <r>   13.3201    0.0000 </r>
       <r>   16.1138    0.0000 </r>
       <r>   16.1138    0.0000 </r>
       <r>   16.8011    0.0000 </r>
       <r>   16.8387    0.0000 </r>
      </set>
      <set comment="kpoint 6">
       <r>   -5.9293    1.0000 </r>
       <r>    4.2666    1.0000 </r>
       <r>    4.8319    1.0000 </r>
       <r>    4.8319    1.0000 </r>
       <r>    7.6338    0.0000 </r>
       <r>    9.2904    0.0000 </r>
       <r>    9.2904    0.0000 </r>
       <r>    9.8399    0.0000 </r>
       <r>   12.1024    0.0000 </r>
       <r>   13.6257    0.0000 </r>
       <r>   14.5661    0.0000 </r>
       <r>   17.2667    0.0000 </r>
      </set>
      <set comment="kpoint 7">
       <r>   -5.4691    1.0000 </r>
       <r>    2.4127    1.0000 </r>
       <r>    4.3295    1.0000 </r>
       <r>    4.3933    1.0000 </r>
       <r>    7.7633    0.0000 </r>
       <r>    9.2441    0.0000 </r>
       <r>   10.0461    0.0000 </r>
       <r>   10.3569    0.0000 </r>
       <r>   12.9801    0.0000 </r>
       <r>   13.7868    0.0000 </r>
       <r>   15.5538    0.0000 </r>
       <r>   17.1158    0.0000 </r>
      </set>
      <set comment="kpoint 8">
       <r>   -4.6704    1.0000 </r>
       <r>    0.3905    1.0000 </r>
       <r>    3.8099    1.0000 </r>
       <r>    4.0646    1.0000 </r>
       <r>    7.8466    0.0000 </r>
       <r>    9.2114    0.0000 </r>
       <r>   10.0600    0.0000 </r>
       <r>   11.0578    0.0000 </r>
       <r>   14.8881    0.0000 </r>
       <r>   14.8996    0.0000 </r>
       <r>   15.4099    0.0000 </r>
       <r>   18.8901    0.0000 </r>
      </set>
      <set comment="kpoint 9">
       <r>   -3.8313    1.0000 </r>
       <r>   -1.0402    1.0000 </r>
       <r>    3.3728    1.0000 </r>
       <r>    4.0866    1.0000 </r>
       <r>    7.7816    0.0000 </r>
       <r>    9.1071    0.0000 </r>
       <r>    9.7117    0.0000 </r>
       <r>   12.9233    0.0000 </r>
       <r>   14.5616    0.0000 </r>
       <r>   16.0354    0.0000 </r>
       <r>   17.0209    0.0000 </r>
       <r>   17.1574    0.0000 </r>
      </set>
      <set comment="kpoint 10">
       <r>   -4.0686    1.0000 </r>
       <r>   -0.6789    1.0000 </r>
       <r>    3.1976    1.0000 </r>
       <r>    4.3760    1.0000 </r>
       <r>    7.9312    0.0000 </r>
       <r>    9.2261    0.0000 </r>
       <r>    9.4822    0.0000 </r>
       <r>   13.4466    0.0000 </r>
       <r>   13.6771    0.0000 </r>
       <r>   14.7534    0.0000 </r>
       <r>   16.6959    0.0000 </r>
       <r>   17.9015    0.0000 </r>
      </set>
      <set comment="kpoint 11">
       <r>   -4.9705    1.0000 </r>
       <r>    1.0369    1.0000 </r>
       <r>    3.3518    1.0000 </r>
       <r>    4.8572    1.0000 </r>
       <r>    8.2746    0.0000 </r>
       <r>    9.2799    0.0000 </r>
       <r>    9.4540    0.0000 </r>
       <r>   11.8304    0.0000 </r>
       <r>   12.0940    0.0000 </r>
       <r>   15.3639    0.0000 </r>
       <r>   15.5777    0.0000 </r>
       <r>   17.9217    0.0000 </r>
      </set>
      <set comment="kpoint 12">
       <r>   -5.6668    1.0000 </r>
       <r>    2.9441    1.0000 </r>
       <r>    4.0292    1.0000 </r>
       <r>    5.3289    1.0000 </r>
       <r>    8.5877    0.0000 </r>
       <r>    8.7276    0.0000 </r>
       <r>    8.9494    0.0000 </r>
       <r>   11.0496    0.0000 </r>
       <r>   11.9737    0.0000 </r>
       <r>   13.5843    0.0000 </r>
       <r>   15.2742    0.0000 </r>
       <r>   16.7326    0.0000 </r>
      </set>
      <set comment="kpoint 13">
       <r>   -5.1347    1.0000 </r>
       <r>    2.1003    1.0000 </r>
       <r>    3.7697    1.0000 </r>
       <r>    3.7697    1.0000 </r>
       <r>    6.7696    0.0000 </r>
       <r>    8.7539    0.0000 </r>
       <r>   11.3085    0.0000 </r>
       <r>   11.3085    0.0000 </r>
       <r>   13.4884    0.0000 </r>
       <r>   14.5189    0.0000 </r>
       <r>   16.9201    0.0000 </r>
       <r>   18.5359    0.0000 </r>
      </set>
      <set comment="kpoint 14">
       <r>   -4.4380    1.0000 </r>
       <r>    0.7032    1.0000 </r>
       <r>    3.0036    1.0000 </r>
       <r>    3.4566    1.0000 </r>
       <r>    6.9890    0.0000 </r>
       <r>    8.5211    0.0000 </r>
       <r>   11.5277    0.0000 </r>
       <r>   11.8258    0.0000 </r>
       <r>   15.5423    0.0000 </r>
       <r>   15.5908    0.0000 </r>
       <r>   17.1663    0.0000 </r>
       <r>   18.7054    0.0000 </r>
      </set>
      <set comment="kpoint 15">
       <r>   -3.5329    1.0000 </r>
       <r>   -0.7054    1.0000 </r>
       <r>    2.1555    1.0000 </r>
       <r>    3.4586    1.0000 </r>
       <r>    7.1598    0.0000 </r>
       <r>   10.0502    0.0000 </r>
       <r>   11.2655    0.0000 </r>
       <r>   11.4955    0.0000 </r>
       <r>   15.7057    0.0000 </r>
       <r>   16.0793    0.0000 </r>
       <r>   17.6683    0.0000 </r>
       <r>   18.1411    0.0000 </r>
      </set>
      <set comment="kpoint 16">
       <r>   -3.3357    1.0000 </r>
       <r>   -0.9554    1.0000 </r>
       <r>    1.7080    1.0000 </r>
       <r>    3.7699    1.0000 </r>
       <r>    7.4740    0.0000 </r>
       <r>   11.0203    0.0000 </r>
       <r>   11.0612    0.0000 </r>
       <r>   12.5024    0.0000 </r>
       <r>   13.5123    0.0000 </r>
       <r>   13.5661    0.0000 </r>
       <r>   18.0972    0.0000 </r>
       <r>   20.3014    0.0000 </r>
      </set>
      <set comment="kpoint 17">
       <r>   -4.1929    1.0000 </r>
       <r>    0.1789    1.0000 </r>
       <r>    1.9487    1.0000 </r>
       <r>    4.3162    1.0000 </r>
       <r>    8.0561    0.0000 </r>
       <r>   10.3674    0.0000 </r>
       <r>   10.7020    0.0000 </r>
       <r>   11.6606    0.0000 </r>
       <r>   12.0717    0.0000 </r>
       <r>   15.1410    0.0000 </r>
       <r>   18.1135    0.0000 </r>
       <r>   18.6494    0.0000 </r>
      </set>
      <set comment="kpoint 18">
       <r>   -3.8459    1.0000 </r>
       <r>   -0.0938    1.0000 </r>
       <r>    3.0656    1.0000 </r>
       <r>    3.0656    1.0000 </r>
       <r>    6.2683    0.0000 </r>
       <r>    7.1936    0.0000 </r>
       <r>   13.5564    0.0000 </r>
       <r>   13.5564    0.0000 </r>
       <r>   16.0014    0.0000 </r>
       <r>   16.1028    0.0000 </r>
       <r>   18.5036    0.0000 </r>
       <r>   18.5036    0.0000 </r>
      </set>
      <set comment="kpoint 19">
       <r>   -2.9665    1.0000 </r>
       <r>   -1.1605    1.0000 </r>
       <r>    2.2597    1.0000 </r>
       <r>    2.9904    1.0000 </r>
       <r>    6.5487    0.0000 </r>
       <r>    7.6031    0.0000 </r>
       <r>   13.7933    0.0000 </r>
       <r>   13.8494    0.0000 </r>
       <r>   16.2379    0.0000 </r>
       <r>   16.3383    0.0000 </r>
       <r>   17.8352    0.0000 </r>
       <r>   18.2582    0.0000 </r>
      </set>
      <set comment="kpoint 20">
       <r>   -2.5431    1.0000 </r>
       <r>   -1.5458    1.0000 </r>
       <r>    1.4172    1.0000 </r>
       <r>    3.2426    1.0000 </r>
       <r>    6.8521    0.0000 </r>
       <r>    9.7305    0.0000 </r>
       <r>   12.9998    0.0000 </r>
       <r>   13.5353    0.0000 </r>
       <r>   13.7024    0.0000 </r>
       <r>   14.0987    0.0000 </r>
       <r>   20.1217    0.0000 </r>
       <r>   20.3849    0.0000 </r>
      </set>
      <set comment="kpoint 21">
       <r>   -2.1283    1.0000 </r>
       <r>   -2.1282    1.0000 </r>
       <r>    2.8241    1.0000 </r>
       <r>    2.8241    1.0000 </r>
       <r>    6.3693    0.0000 </r>
       <r>    6.3693    0.0000 </r>
       <r>   15.5561    0.0000 </r>
       <r>   15.5561    0.0000 </r>
       <r>   16.5258    0.0000 </r>
       <r>   16.5258    0.0000 </r>
       <r>   18.0631    0.0000 </r>
       <r>   18.1338    0.0000 </r>
      </set>
      <set comment="kpoint 22">
       <r>   -4.8923    1.0000 </r>
       <r>    1.3503    1.0000 </r>
       <r>    2.9660    1.0000 </r>
       <r>    4.2183    1.0000 </r>
       <r>    8.0616    0.0000 </r>
       <r>    9.4463    0.0000 </r>
       <r>    9.8211    0.0000 </r>
       <r>   11.0599    0.0000 </r>
       <r>   13.3320    0.0000 </r>
       <r>   15.7252    0.0000 </r>
       <r>   16.5839    0.0000 </r>
       <r>   17.6516    0.0000 </r>
      </set>
      <set comment="kpoint 23">
       <r>   -4.0227    1.0000 </r>
       <r>   -0.1696    1.0000 </r>
       <r>    2.3620    1.0000 </r>
       <r>    3.7308    1.0000 </r>
       <r>    8.4829    0.0000 </r>
       <r>    9.1484    0.0000 </r>
       <r>   10.5965    0.0000 </r>
       <r>   11.4973    0.0000 </r>
       <r>   14.5501    0.0000 </r>
       <r>   15.2462    0.0000 </r>
       <r>   17.5216    0.0000 </r>
       <r>   18.3694    0.0000 </r>
      </set>
      <set comment="kpoint 24">
       <r>   -3.3883    1.0000 </r>
       <r>   -1.0894    1.0000 </r>
       <r>    2.2306    1.0000 </r>
       <r>    3.5077    1.0000 </r>
       <r>    8.6425    0.0000 </r>
       <r>    8.7645    0.0000 </r>
       <r>   11.4659    0.0000 </r>
       <r>   12.6850    0.0000 </r>
       <r>   12.9265    0.0000 </r>
       <r>   16.1269    0.0000 </r>
       <r>   17.1730    0.0000 </r>
       <r>   17.8939    0.0000 </r>
      </set>
      <set comment="kpoint 25">
       <r>   -3.6526    1.0000 </r>
       <r>   -0.3091    1.0000 </r>
       <r>    2.3301    1.0000 </r>
       <r>    2.9222    1.0000 </r>
       <r>    7.5741    0.0000 </r>
       <r>    8.2769    0.0000 </r>
       <r>   11.3042    0.0000 </r>
       <r>   13.5077    0.0000 </r>
       <r>   15.6753    0.0000 </r>
       <r>   15.7294    0.0000 </r>
       <r>   18.3051    0.0000 </r>
       <r>   18.8077    0.0000 </r>
      </set>
      <set comment="kpoint 26">
       <r>   -2.7988    1.0000 </r>
       <r>   -1.2578    1.0000 </r>
       <r>    1.6497    1.0000 </r>
       <r>    2.7261    1.0000 </r>
       <r>    8.0134    0.0000 </r>
       <r>    9.8874    0.0000 </r>
       <r>   10.8317    0.0000 </r>
       <r>   12.9712    0.0000 </r>
       <r>   13.9273    0.0000 </r>
       <r>   16.5800    0.0000 </r>
       <r>   17.6921    0.0000 </r>
       <r>   19.8054    0.0000 </r>
      </set>
      <set comment="kpoint 27">
       <r>   -3.1425    1.0000 </r>
       <r>   -0.8999    1.0000 </r>
       <r>    1.4873    1.0000 </r>
       <r>    3.0929    1.0000 </r>
       <r>    8.4830    0.0000 </r>
       <r>   10.1332    0.0000 </r>
       <r>   10.7849    0.0000 </r>
       <r>   12.5821    0.0000 </r>
       <r>   13.3857    0.0000 </r>
       <r>   14.7661    0.0000 </r>
       <r>   19.5567    0.0000 </r>
       <r>   19.7596    0.0000 </r>
      </set>
      <set comment="kpoint 28">
       <r>   -2.0545    1.0000 </r>
       <r>   -2.0544    1.0000 </r>
       <r>    2.2787    1.0000 </r>
       <r>    2.2787    1.0000 </r>
       <r>    7.6041    0.0000 </r>
       <r>    7.6041    0.0000 </r>
       <r>   13.3711    0.0000 </r>
       <r>   13.3711    0.0000 </r>
       <r>   16.0732    0.0000 </r>
       <r>   16.0732    0.0000 </r>
       <r>   18.3408    0.0000 </r>
       <r>   18.3408    0.0000 </r>
      </set>
      <set comment="kpoint 29">
       <r>   -1.9736    1.0000 </r>
       <r>   -1.9736    1.0000 </r>
       <r>    1.8567    1.0000 </r>
       <r>    1.8567    1.0000 </r>
       <r>    9.8884    0.0000 </r>
       <r>    9.8884    0.0000 </r>
       <r>   10.5506    0.0000 </r>
       <r>   10.5506    0.0000 </r>
       <r>   16.0710    0.0000 </r>
       <r>   16.0710    0.0000 </r>
       <r>   18.4903    0.0000 </r>
       <r>   18.4903    0.0000 </r>
      </set>
     </set>
    </set>
   </array>
  </eigenvalues>
  <separator name="orbital magnetization" >
   <v name="MAGDIPOLOUT">      0.00000000      0.00000000      0.00000000</v>
  </separator>
  <dos>
   <i name="efermi">      5.63781107 </i>
   <total>
    <array>
     <dimension dim="1">gridpoints</dimension>
     <dimension dim="2">spin</dimension>
     <field>energy</field>
     <field>total</field>
     <field>integrated</field>
     <set>
      <set comment="spin 1">
       <r>    -7.5265     0.0000     0.0000 </r>
       <r>    -7.4290     0.0000     0.0000 </r>
       <r>    -7.3316     0.0000     0.0000 </r>
       <r>    -7.2341     0.0000     0.0000 </r>
       <r>    -7.1366     0.0000     0.0000 </r>
       <r>    -7.0392     0.0000     0.0000 </r>
       <r>    -6.9417     0.0000     0.0000 </r>
       <r>    -6.8442     0.0000     0.0000 </r>
       <r>    -6.7468     0.0000     0.0000 </r>
       <r>    -6.6493     0.0000     0.0000 </r>
       <r>    -6.5518     0.0000     0.0000 </r>
       <r>    -6.4543     0.0000     0.0000 </r>
       <r>    -6.3569     0.0000     0.0000 </r>
       <r>    -6.2594     0.0000     0.0000 </r>
       <r>    -6.1619     0.0027     0.0000 </r>
       <r>    -6.0645     0.0384     0.0017 </r>
       <r>    -5.9670     0.0772     0.0083 </r>
       <r>    -5.8695     0.0872     0.0160 </r>
       <r>    -5.7721     0.1055     0.0254 </r>
       <r>    -5.6746     0.1253     0.0367 </r>
       <r>    -5.5771     0.1420     0.0498 </r>
       <r>    -5.4797     0.1493     0.0640 </r>
       <r>    -5.3822     0.1586     0.0790 </r>
       <r>    -5.2847     0.1711     0.0950 </r>
       <r>    -5.1873     0.1840     0.1123 </r>
       <r>    -5.0898     0.1973     0.1309 </r>
       <r>    -4.9923     0.2112     0.1508 </r>
       <r>    -4.8949     0.2207     0.1719 </r>
       <r>    -4.7974     0.2320     0.1939 </r>
       <r>    -4.6999     0.2437     0.2171 </r>
       <r>    -4.6025     0.2564     0.2415 </r>
       <r>    -4.5050     0.2714     0.2672 </r>
       <r>    -4.4075     0.2883     0.2944 </r>
       <r>    -4.3100     0.3071     0.3234 </r>
       <r>    -4.2126     0.3274     0.3543 </r>
       <r>    -4.1151     0.3500     0.3873 </r>
       <r>    -4.0176     0.3920     0.4230 </r>
       <r>    -3.9202     0.5172     0.4666 </r>
       <r>    -3.8227     0.4321     0.5162 </r>
       <r>    -3.7252     0.4255     0.5580 </r>
       <r>    -3.6278     0.4200     0.5992 </r>
       <r>    -3.5303     0.4151     0.6399 </r>
       <r>    -3.4328     0.3920     0.6795 </r>
       <r>    -3.3354     0.3564     0.7156 </r>
       <r>    -3.2379     0.3594     0.7506 </r>
       <r>    -3.1404     0.3496     0.7852 </r>
       <r>    -3.0430     0.3330     0.8185 </r>
       <r>    -2.9455     0.3188     0.8501 </r>
       <r>    -2.8480     0.3100     0.8809 </r>
       <r>    -2.7506     0.2788     0.9099 </r>
       <r>    -2.6531     0.2340     0.9349 </r>
       <r>    -2.5556     0.1893     0.9555 </r>
       <r>    -2.4581     0.1460     0.9719 </r>
       <r>    -2.3607     0.1059     0.9841 </r>
       <r>    -2.2632     0.0691     0.9926 </r>
       <r>    -2.1657     0.0357     0.9977 </r>
       <r>    -2.0683     0.0112     0.9998 </r>
       <r>    -1.9708     0.0203     1.0010 </r>
       <r>    -1.8733     0.0501     1.0044 </r>
       <r>    -1.7759     0.0834     1.0109 </r>
       <r>    -1.6784     0.1202     1.0208 </r>
       <r>    -1.5809     0.1605     1.0344 </r>
       <r>    -1.4835     0.2046     1.0522 </r>
       <r>    -1.3860     0.2541     1.0745 </r>
       <r>    -1.2885     0.3090     1.1019 </r>
       <r>    -1.1911     0.4160     1.1365 </r>
       <r>    -1.0936     0.5473     1.1833 </r>
       <r>    -0.9961     0.8745     1.2556 </r>
       <r>    -0.8987     0.6273     1.3297 </r>
       <r>    -0.8012     0.4856     1.3834 </r>
       <r>    -0.7037     0.4115     1.4266 </r>
       <r>    -0.6063     0.3778     1.4650 </r>
       <r>    -0.5088     0.3473     1.5003 </r>
       <r>    -0.4113     0.3191     1.5328 </r>
       <r>    -0.3138     0.2933     1.5626 </r>
       <r>    -0.2164     0.2651     1.5899 </r>
       <r>    -0.1189     0.2372     1.6142 </r>
       <r>    -0.0214     0.2188     1.6364 </r>
       <r>     0.0760     0.2046     1.6570 </r>
       <r>     0.1735     0.1946     1.6764 </r>
       <r>     0.2710     0.1871     1.6950 </r>
       <r>     0.3684     0.1800     1.7129 </r>
       <r>     0.4659     0.1729     1.7301 </r>
       <r>     0.5634     0.1655     1.7466 </r>
       <r>     0.6608     0.1576     1.7624 </r>
       <r>     0.7583     0.1492     1.7773 </r>
       <r>     0.8558     0.1411     1.7915 </r>
       <r>     0.9532     0.1335     1.8048 </r>
       <r>     1.0507     0.1251     1.8175 </r>
       <r>     1.1482     0.1114     1.8290 </r>
       <r>     1.2456     0.1019     1.8393 </r>
       <r>     1.3431     0.0966     1.8490 </r>
       <r>     1.4406     0.1057     1.8583 </r>
       <r>     1.5381     0.3608     1.8794 </r>
       <r>     1.6355     0.6908     1.9304 </r>
       <r>     1.7330     0.6348     1.9975 </r>
       <r>     1.8305     0.5710     2.0557 </r>
       <r>     1.9279     0.5613     2.1107 </r>
       <r>     2.0254     0.5635     2.1654 </r>
       <r>     2.1229     0.5726     2.2207 </r>
       <r>     2.2203     0.5712     2.2769 </r>
       <r>     2.3178     0.5620     2.3403 </r>
       <r>     2.4153     0.5535     2.3938 </r>
       <r>     2.5127     0.5699     2.4485 </r>
       <r>     2.6102     0.6009     2.5054 </r>
       <r>     2.7077     0.6466     2.5661 </r>
       <r>     2.8051     0.7089     2.6321 </r>
       <r>     2.9026     0.7640     2.7040 </r>
       <r>     3.0001     0.9377     2.7865 </r>
       <r>     3.0975     0.7665     2.8653 </r>
       <r>     3.1950     0.7541     2.9394 </r>
       <r>     3.2925     0.7415     3.0123 </r>
       <r>     3.3899     0.7259     3.0839 </r>
       <r>     3.4874     0.7081     3.1535 </r>
       <r>     3.5849     0.7173     3.2230 </r>
       <r>     3.6824     0.7160     3.2930 </r>
       <r>     3.7798     0.7041     3.3623 </r>
       <r>     3.8773     0.6864     3.4301 </r>
       <r>     3.9748     0.6649     3.4959 </r>
       <r>     4.0722     0.6380     3.5595 </r>
       <r>     4.1697     0.6470     3.6220 </r>
       <r>     4.2672     0.6402     3.6850 </r>
       <r>     4.3646     0.5943     3.7457 </r>
       <r>     4.4621     0.4634     3.7980 </r>
       <r>     4.5596     0.3689     3.8377 </r>
       <r>     4.6570     0.3186     3.8713 </r>
       <r>     4.7545     0.2674     3.8998 </r>
       <r>     4.8520     0.2152     3.9234 </r>
       <r>     4.9494     0.1792     3.9424 </r>
       <r>     5.0469     0.1517     3.9585 </r>
       <r>     5.1444     0.1302     3.9722 </r>
       <r>     5.2418     0.1149     3.9841 </r>
       <r>     5.3393     0.0588     3.9945 </r>
       <r>     5.4368     0.0249     3.9985 </r>
       <r>     5.5343     0.0054     3.9998 </r>
       <r>     5.6317     0.0000     4.0000 </r>
       <r>     5.7292     0.0000     4.0000 </r>
       <r>     5.8267     0.0000     4.0000 </r>
       <r>     5.9241     0.0000     4.0000 </r>
       <r>     6.0216     0.0000     4.0000 </r>
       <r>     6.1191     0.0000     4.0000 </r>
       <r>     6.2165     0.0000     4.0000 </r>
       <r>     6.3140     0.0073     4.0001 </r>
       <r>     6.4115     0.0608     4.0033 </r>
       <r>     6.5089     0.0849     4.0107 </r>
       <r>     6.6064     0.0972     4.0192 </r>
       <r>     6.7039     0.1274     4.0301 </r>
       <r>     6.8013     0.1610     4.0442 </r>
       <r>     6.8988     0.1928     4.0614 </r>
       <r>     6.9963     0.2224     4.0817 </r>
       <r>     7.0937     0.2556     4.1050 </r>
       <r>     7.1912     0.2955     4.1317 </r>
       <r>     7.2887     0.3505     4.1631 </r>
       <r>     7.3861     0.4172     4.2004 </r>
       <r>     7.4836     0.4953     4.2448 </r>
       <r>     7.5811     0.5883     4.2975 </r>
       <r>     7.6786     0.7165     4.3610 </r>
       <r>     7.7760     0.8903     4.4389 </r>
       <r>     7.8735     0.9935     4.5317 </r>
       <r>     7.9710     1.0201     4.6302 </r>
       <r>     8.0684     1.0479     4.7302 </r>
       <r>     8.1659     1.0705     4.8348 </r>
       <r>     8.2634     0.9017     4.9328 </r>
       <r>     8.3608     0.6545     5.0079 </r>
       <r>     8.4583     0.4935     5.0631 </r>
       <r>     8.5558     0.2655     5.0980 </r>
       <r>     8.6532     0.2690     5.1226 </r>
       <r>     8.7507     0.3382     5.1522 </r>
       <r>     8.8482     0.4267     5.1891 </r>
       <r>     8.9456     0.5663     5.2370 </r>
       <r>     9.0431     0.8918     5.3045 </r>
       <r>     9.1406     1.6022     5.4263 </r>
       <r>     9.2380     1.6336     5.6035 </r>
       <r>     9.3355     0.8813     5.7137 </r>
       <r>     9.4330     0.7190     5.7894 </r>
       <r>     9.5305     0.7070     5.8591 </r>
       <r>     9.6279     0.6768     5.9267 </r>
       <r>     9.7254     0.6384     5.9907 </r>
       <r>     9.8229     0.6487     6.0530 </r>
       <r>     9.9203     0.9134     6.1278 </r>
       <r>    10.0178     0.6146     6.2013 </r>
       <r>    10.1153     0.4797     6.2528 </r>
       <r>    10.2127     0.4654     6.2988 </r>
       <r>    10.3102     0.4511     6.3435 </r>
       <r>    10.4077     0.4337     6.3867 </r>
       <r>    10.5051     0.4185     6.4282 </r>
       <r>    10.6026     0.4356     6.4687 </r>
       <r>    10.7001     0.6566     6.5222 </r>
       <r>    10.7975     0.9188     6.5986 </r>
       <r>    10.8950     0.7664     6.6774 </r>
       <r>    10.9925     0.7206     6.7502 </r>
       <r>    11.0899     0.6675     6.8174 </r>
       <r>    11.1874     0.6251     6.8806 </r>
       <r>    11.2849     0.5513     6.9382 </r>
       <r>    11.3823     0.4965     6.9888 </r>
       <r>    11.4798     0.5078     7.0372 </r>
       <r>    11.5773     0.4801     7.0858 </r>
       <r>    11.6748     0.4469     7.1309 </r>
       <r>    11.7722     0.4147     7.1729 </r>
       <r>    11.8697     0.3992     7.2121 </r>
       <r>    11.9672     0.4113     7.2516 </r>
       <r>    12.0646     0.4476     7.2930 </r>
       <r>    12.1621     0.5251     7.3411 </r>
       <r>    12.2596     0.5736     7.3947 </r>
       <r>    12.3570     0.6176     7.4528 </r>
       <r>    12.4545     0.6570     7.5149 </r>
       <r>    12.5520     0.6973     7.5807 </r>
       <r>    12.6494     0.7634     7.6524 </r>
       <r>    12.7469     0.7541     7.7267 </r>
       <r>    12.8444     0.7090     7.7984 </r>
       <r>    12.9418     0.6286     7.8636 </r>
       <r>    13.0393     0.6162     7.9232 </r>
       <r>    13.1368     0.6368     7.9842 </r>
       <r>    13.2342     0.6573     8.0473 </r>
       <r>    13.3317     0.6770     8.1124 </r>
       <r>    13.4292     0.6581     8.1778 </r>
       <r>    13.5266     0.7308     8.2448 </r>
       <r>    13.6241     0.7364     8.3160 </r>
       <r>    13.7216     0.7054     8.3874 </r>
       <r>    13.8191     0.5793     8.4499 </r>
       <r>    13.9165     0.5268     8.5030 </r>
       <r>    14.0140     0.5244     8.5540 </r>
       <r>    14.1115     0.5292     8.6053 </r>
       <r>    14.2089     0.5384     8.6573 </r>
       <r>    14.3064     0.5477     8.7103 </r>
       <r>    14.4039     0.5570     8.7641 </r>
       <r>    14.5013     0.5697     8.8190 </r>
       <r>    14.5988     0.5814     8.8752 </r>
       <r>    14.6963     0.5960     8.9325 </r>
       <r>    14.7937     0.6212     8.9917 </r>
       <r>    14.8912     0.6664     9.0542 </r>
       <r>    14.9887     0.7267     9.1221 </r>
       <r>    15.0861     0.7924     9.1961 </r>
       <r>    15.1836     0.8597     9.2767 </r>
       <r>    15.2811     0.9025     9.3628 </r>
       <r>    15.3785     0.9059     9.4516 </r>
       <r>    15.4760     0.8572     9.5373 </r>
       <r>    15.5735     0.8473     9.6196 </r>
       <r>    15.6710     0.9357     9.7081 </r>
       <r>    15.7684     0.7761     9.7895 </r>
       <r>    15.8659     0.7673     9.8646 </r>
       <r>    15.9634     0.7672     9.9393 </r>
       <r>    16.0608     0.7282    10.0139 </r>
       <r>    16.1583     0.6709    10.0796 </r>
       <r>    16.2558     0.6885    10.1469 </r>
       <r>    16.3532     0.5652    10.2093 </r>
       <r>    16.4507     0.3380    10.2523 </r>
       <r>    16.5482     0.2322    10.2792 </r>
       <r>    16.6456     0.2232    10.3004 </r>
       <r>    16.7431     0.2543    10.3233 </r>
       <r>    16.8406     0.3562    10.3527 </r>
       <r>    16.9380     0.4358    10.3917 </r>
       <r>    17.0355     0.4571    10.4360 </r>
       <r>    17.1330     0.4437    10.4798 </r>
       <r>    17.2304     0.4428    10.5225 </r>
       <r>    17.3279     0.4779    10.5673 </r>
       <r>    17.4254     0.5210    10.6159 </r>
       <r>    17.5228     0.5703    10.6691 </r>
       <r>    17.6203     0.5990    10.7263 </r>
       <r>    17.7178     0.6455    10.7857 </r>
       <r>    17.8153     0.7196    10.8529 </r>
       <r>    17.9127     0.8347    10.9281 </r>
       <r>    18.0102     0.9183    11.0144 </r>
       <r>    18.1077     0.9066    11.1034 </r>
       <r>    18.2051     0.9081    11.1897 </r>
       <r>    18.3026     0.9404    11.2889 </r>
       <r>    18.4001     0.8588    11.3746 </r>
       <r>    18.4975     0.8257    11.4567 </r>
       <r>    18.5950     0.8285    11.5376 </r>
       <r>    18.6925     0.6673    11.6122 </r>
       <r>    18.7899     0.4086    11.6627 </r>
       <r>    18.8874     0.3589    11.6997 </r>
       <r>    18.9849     0.3306    11.7333 </r>
       <r>    19.0823     0.3070    11.7643 </r>
       <r>    19.1798     0.2880    11.7933 </r>
       <r>    19.2773     0.2734    11.8206 </r>
       <r>    19.3747     0.2607    11.8466 </r>
       <r>    19.4722     0.2491    11.8714 </r>
       <r>    19.5697     0.2387    11.8952 </r>
       <r>    19.6672     0.2290    11.9180 </r>
       <r>    19.7646     0.2189    11.9399 </r>
       <r>    19.8621     0.1321    11.9552 </r>
       <r>    19.9596     0.1209    11.9675 </r>
       <r>    20.0570     0.1062    11.9786 </r>
       <r>    20.1545     0.0880    11.9881 </r>
       <r>    20.2520     0.0656    11.9956 </r>
       <r>    20.3494     0.0094    11.9999 </r>
       <r>    20.4469     0.0000    12.0000 </r>
       <r>    20.5444     0.0000    12.0000 </r>
       <r>    20.6418     0.0000    12.0000 </r>
       <r>    20.7393     0.0000    12.0000 </r>
       <r>    20.8368     0.0000    12.0000 </r>
       <r>    20.9342     0.0000    12.0000 </r>
       <r>    21.0317     0.0000    12.0000 </r>
       <r>    21.1292     0.0000    12.0000 </r>
       <r>    21.2266     0.0000    12.0000 </r>
       <r>    21.3241     0.0000    12.0000 </r>
       <r>    21.4216     0.0000    12.0000 </r>
       <r>    21.5190     0.0000    12.0000 </r>
       <r>    21.6165     0.0000    12.0000 </r>
       <r>    21.7140     0.0000    12.0000 </r>
      </set>
      <set comment="spin 2">
       <r>    -7.5265     0.0000     0.0000 </r>
       <r>    -7.4290     0.0000     0.0000 </r>
       <r>    -7.3316     0.0000     0.0000 </r>
       <r>    -7.2341     0.0000     0.0000 </r>
       <r>    -7.1366     0.0000     0.0000 </r>
       <r>    -7.0392     0.0000     0.0000 </r>
       <r>    -6.9417     0.0000     0.0000 </r>
       <r>    -6.8442     0.0000     0.0000 </r>
       <r>    -6.7468     0.0000     0.0000 </r>
       <r>    -6.6493     0.0000     0.0000 </r>
       <r>    -6.5518     0.0000     0.0000 </r>
       <r>    -6.4543     0.0000     0.0000 </r>
       <r>    -6.3569     0.0000     0.0000 </r>
       <r>    -6.2594     0.0000     0.0000 </r>
       <r>    -6.1619     0.0027     0.0000 </r>
       <r>    -6.0645     0.0384     0.0017 </r>
       <r>    -5.9670     0.0772     0.0083 </r>
       <r>    -5.8695     0.0872     0.0160 </r>
       <r>    -5.7721     0.1055     0.0254 </r>
       <r>    -5.6746     0.1253     0.0367 </r>
       <r>    -5.5771     0.1420     0.0498 </r>
       <r>    -5.4797     0.1493     0.0640 </r>
       <r>    -5.3822     0.1586     0.0790 </r>
       <r>    -5.2847     0.1711     0.0950 </r>
       <r>    -5.1873     0.1840     0.1123 </r>
       <r>    -5.0898     0.1973     0.1309 </r>
       <r>    -4.9923     0.2112     0.1508 </r>
       <r>    -4.8949     0.2207     0.1719 </r>
       <r>    -4.7974     0.2320     0.1939 </r>
       <r>    -4.6999     0.2437     0.2171 </r>
       <r>    -4.6025     0.2564     0.2415 </r>
       <r>    -4.5050     0.2714     0.2672 </r>
       <r>    -4.4075     0.2883     0.2944 </r>
       <r>    -4.3100     0.3071     0.3234 </r>
       <r>    -4.2126     0.3274     0.3543 </r>
       <r>    -4.1151     0.3500     0.3873 </r>
       <r>    -4.0176     0.3920     0.4230 </r>
       <r>    -3.9202     0.5172     0.4666 </r>
       <r>    -3.8227     0.4321     0.5162 </r>
       <r>    -3.7252     0.4255     0.5580 </r>
       <r>    -3.6278     0.4200     0.5992 </r>
       <r>    -3.5303     0.4151     0.6399 </r>
       <r>    -3.4328     0.3920     0.6795 </r>
       <r>    -3.3354     0.3564     0.7156 </r>
       <r>    -3.2379     0.3594     0.7506 </r>
       <r>    -3.1404     0.3496     0.7852 </r>
       <r>    -3.0430     0.3330     0.8185 </r>
       <r>    -2.9455     0.3188     0.8501 </r>
       <r>    -2.8480     0.3100     0.8809 </r>
       <r>    -2.7506     0.2788     0.9099 </r>
       <r>    -2.6531     0.2340     0.9349 </r>
       <r>    -2.5556     0.1893     0.9555 </r>
       <r>    -2.4581     0.1460     0.9719 </r>
       <r>    -2.3607     0.1059     0.9841 </r>
       <r>    -2.2632     0.0691     0.9926 </r>
       <r>    -2.1657     0.0357     0.9977 </r>
       <r>    -2.0683     0.0112     0.9998 </r>
       <r>    -1.9708     0.0203     1.0010 </r>
       <r>    -1.8733     0.0501     1.0044 </r>
       <r>    -1.7759     0.0834     1.0109 </r>
       <r>    -1.6784     0.1202     1.0208 </r>
       <r>    -1.5809     0.1605     1.0344 </r>
       <r>    -1.4835     0.2046     1.0522 </r>
       <r>    -1.3860     0.2541     1.0745 </r>
       <r>    -1.2885     0.3090     1.1019 </r>
       <r>    -1.1911     0.4160     1.1365 </r>
       <r>    -1.0936     0.5473     1.1833 </r>
       <r>    -0.9961     0.8745     1.2556 </r>
       <r>    -0.8987     0.6274     1.3297 </r>
       <r>    -0.8012     0.4856     1.3834 </r>
       <r>    -0.7037     0.4115     1.4266 </r>
       <r>    -0.6063     0.3778     1.4650 </r>
       <r>    -0.5088     0.3473     1.5003 </r>
       <r>    -0.4113     0.3191     1.5328 </r>
       <r>    -0.3138     0.2933     1.5626 </r>
       <r>    -0.2164     0.2651     1.5899 </r>
       <r>    -0.1189     0.2372     1.6142 </r>
       <r>    -0.0214     0.2188     1.6364 </r>
       <r>     0.0760     0.2046     1.6570 </r>
       <r>     0.1735     0.1946     1.6764 </r>
       <r>     0.2710     0.1871     1.6950 </r>
       <r>     0.3684     0.1800     1.7129 </r>
       <r>     0.4659     0.1729     1.7301 </r>
       <r>     0.5634     0.1655     1.7466 </r>
       <r>     0.6608     0.1576     1.7624 </r>
       <r>     0.7583     0.1492     1.7773 </r>
       <r>     0.8558     0.1411     1.7915 </r>
       <r>     0.9532     0.1335     1.8048 </r>
       <r>     1.0507     0.1251     1.8175 </r>
       <r>     1.1482     0.1114     1.8290 </r>
       <r>     1.2456     0.1019     1.8393 </r>
       <r>     1.3431     0.0966     1.8490 </r>
       <r>     1.4406     0.1057     1.8583 </r>
       <r>     1.5381     0.3608     1.8794 </r>
       <r>     1.6355     0.6907     1.9304 </r>
       <r>     1.7330     0.6349     1.9975 </r>
       <r>     1.8305     0.5710     2.0556 </r>
       <r>     1.9279     0.5613     2.1107 </r>
       <r>     2.0254     0.5635     2.1654 </r>
       <r>     2.1229     0.5726     2.2207 </r>
       <r>     2.2203     0.5712     2.2769 </r>
       <r>     2.3178     0.5621     2.3403 </r>
       <r>     2.4153     0.5535     2.3938 </r>
       <r>     2.5127     0.5699     2.4485 </r>
       <r>     2.6102     0.6009     2.5054 </r>
       <r>     2.7077     0.6466     2.5661 </r>
       <r>     2.8051     0.7089     2.6321 </r>
       <r>     2.9026     0.7640     2.7040 </r>
       <r>     3.0001     0.9377     2.7865 </r>
       <r>     3.0975     0.7665     2.8653 </r>
       <r>     3.1950     0.7541     2.9394 </r>
       <r>     3.2925     0.7415     3.0123 </r>
       <r>     3.3899     0.7259     3.0839 </r>
       <r>     3.4874     0.7081     3.1535 </r>
       <r>     3.5849     0.7173     3.2230 </r>
       <r>     3.6824     0.7160     3.2930 </r>
       <r>     3.7798     0.7041     3.3622 </r>
       <r>     3.8773     0.6864     3.4300 </r>
       <r>     3.9748     0.6649     3.4959 </r>
       <r>     4.0722     0.6380     3.5595 </r>
       <r>     4.1697     0.6469     3.6220 </r>
       <r>     4.2672     0.6402     3.6849 </r>
       <r>     4.3646     0.5943     3.7457 </r>
       <r>     4.4621     0.4635     3.7980 </r>
       <r>     4.5596     0.3689     3.8377 </r>
       <r>     4.6570     0.3187     3.8713 </r>
       <r>     4.7545     0.2674     3.8998 </r>
       <r>     4.8520     0.2152     3.9234 </r>
       <r>     4.9494     0.1792     3.9424 </r>
       <r>     5.0469     0.1517     3.9585 </r>
       <r>     5.1444     0.1302     3.9722 </r>
       <r>     5.2418     0.1149     3.9841 </r>
       <r>     5.3393     0.0588     3.9945 </r>
       <r>     5.4368     0.0249     3.9985 </r>
       <r>     5.5343     0.0054     3.9998 </r>
       <r>     5.6317     0.0000     4.0000 </r>
       <r>     5.7292     0.0000     4.0000 </r>
       <r>     5.8267     0.0000     4.0000 </r>
       <r>     5.9241     0.0000     4.0000 </r>
       <r>     6.0216     0.0000     4.0000 </r>
       <r>     6.1191     0.0000     4.0000 </r>
       <r>     6.2165     0.0000     4.0000 </r>
       <r>     6.3140     0.0073     4.0001 </r>
       <r>     6.4115     0.0607     4.0033 </r>
       <r>     6.5089     0.0849     4.0107 </r>
       <r>     6.6064     0.0972     4.0192 </r>
       <r>     6.7039     0.1274     4.0301 </r>
       <r>     6.8013     0.1610     4.0442 </r>
       <r>     6.8988     0.1928     4.0614 </r>
       <r>     6.9963     0.2224     4.0817 </r>
       <r>     7.0937     0.2555     4.1050 </r>
       <r>     7.1912     0.2955     4.1317 </r>
       <r>     7.2887     0.3505     4.1631 </r>
       <r>     7.3861     0.4171     4.2004 </r>
       <r>     7.4836     0.4953     4.2448 </r>
       <r>     7.5811     0.5883     4.2974 </r>
       <r>     7.6786     0.7165     4.3609 </r>
       <r>     7.7760     0.8903     4.4388 </r>
       <r>     7.8735     0.9935     4.5317 </r>
       <r>     7.9710     1.0201     4.6302 </r>
       <r>     8.0684     1.0480     4.7302 </r>
       <r>     8.1659     1.0705     4.8348 </r>
       <r>     8.2634     0.9018     4.9327 </r>
       <r>     8.3608     0.6546     5.0078 </r>
[...]
        <r>  0.0140  0.0036  0.0001  0.0011  0.0000  0.0000  0.0000  0.0000  0.0000 </r>
       </set>
      </set>
      <set comment="kpoint 23">
       <set comment="band 1">
        <r>  0.2086  0.0036  0.0140  0.0023  0.0000  0.0000  0.0000  0.0000  0.0000 </r>
        <r>  0.2086  0.0036  0.0140  0.0023  0.0000  0.0000  0.0000  0.0000  0.0000 </r>
       </set>
       <set comment="band 2">
        <r>  0.1462  0.0183  0.0311  0.0324  0.0000  0.0000  0.0000  0.0000  0.0000 </r>
        <r>  0.1462  0.0183  0.0311  0.0324  0.0000  0.0000  0.0000  0.0000  0.0000 </r>
       </set>
       <set comment="band 3">
        <r>  0.0274  0.0378  0.0371  0.0787  0.0000  0.0000  0.0000  0.0000  0.0000 </r>
        <r>  0.0274  0.0378  0.0371  0.0787  0.0000  0.0000  0.0000  0.0000  0.0000 </r>
       </set>
       <set comment="band 4">
        <r>  0.0038  0.1031  0.0598  0.0284  0.0000  0.0000  0.0000  0.0000  0.0000 </r>
        <r>  0.0038  0.1031  0.0598  0.0284  0.0000  0.0000  0.0000  0.0000  0.0000 </r>
       </set>
       <set comment="band 5">
        <r>  0.0439  0.0207  0.0442  0.0232  0.0000  0.0000  0.0000  0.0000  0.0000 </r>
        <r>  0.0439  0.0207  0.0442  0.0232  0.0000  0.0000  0.0000  0.0000  0.0000 </r>
       </set>
       <set comment="band 6">
        <r>  0.0408  0.0371  0.0099  0.0441  0.0000  0.0000  0.0000  0.0000  0.0000 </r>
        <r>  0.0408  0.0371  0.0099  0.0441  0.0000  0.0000  0.0000  0.0000  0.0000 </r>
       </set>
       <set comment="band 7">
        <r>  0.0358  0.0384  0.0265  0.0235  0.0000  0.0000  0.0000  0.0000  0.0000 </r>
        <r>  0.0358  0.0384  0.0265  0.0235  0.0000  0.0000  0.0000  0.0000  0.0000 </r>
       </set>
       <set comment="band 8">
        <r>  0.0135  0.0408  0.0178  0.0626  0.0000  0.0000  0.0000  0.0000  0.0000 </r>
        <r>  0.0135  0.0408  0.0178  0.0626  0.0000  0.0000  0.0000  0.0000  0.0000 </r>
       </set>
       <set comment="band 9">
        <r>  0.0232  0.0131  0.0409  0.0243  0.0000  0.0000  0.0000  0.0000  0.0000 </r>
        <r>  0.0232  0.0131  0.0409  0.0243  0.0000  0.0000  0.0000  0.0000  0.0000 </r>
       </set>
       <set comment="band 10">
        <r>  0.0043  0.0370  0.0604  0.0256  0.0000  0.0000  0.0000  0.0000  0.0000 </r>
        <r>  0.0043  0.0370  0.0604  0.0256  0.0000  0.0000  0.0000  0.0000  0.0000 </r>
       </set>
       <set comment="band 11">
        <r>  0.0316  0.0085  0.0050  0.0005  0.0000  0.0000  0.0000  0.0000  0.0000 </r>
        <r>  0.0316  0.0085  0.0050  0.0005  0.0000  0.0000  0.0000  0.0000  0.0000 </r>
       </set>
       <set comment="band 12">
        <r>  0.0291  0.0466  0.0574  0.0240  0.0000  0.0000  0.0000  0.0000  0.0000 </r>
        <r>  0.0291  0.0466  0.0574  0.0240  0.0000  0.0000  0.0000  0.0000  0.0000 </r>
       </set>
      </set>
      <set comment="kpoint 24">
       <set comment="band 1">
        <r>  0.2183  0.0030  0.0089  0.0089  0.0000  0.0000  0.0000  0.0000  0.0000 </r>
        <r>  0.2183  0.0030  0.0089  0.0089  0.0000  0.0000  0.0000  0.0000  0.0000 </r>
       </set>
       <set comment="band 2">
        <r>  0.1350  0.0201  0.0292  0.0292  0.0000  0.0000  0.0000  0.0000  0.0000 </r>
        <r>  0.1350  0.0201  0.0292  0.0292  0.0000  0.0000  0.0000  0.0000  0.0000 </r>
       </set>
       <set comment="band 3">
        <r>  0.0369  0.0301  0.0590  0.0590  0.0000  0.0000  0.0000  0.0000  0.0000 </r>
        <r>  0.0369  0.0301  0.0590  0.0590  0.0000  0.0000  0.0000  0.0000  0.0000 </r>
       </set>
       <set comment="band 4">
        <r>  0.0008  0.1049  0.0427  0.0427  0.0000  0.0000  0.0000  0.0000  0.0000 </r>
        <r>  0.0008  0.1049  0.0427  0.0427  0.0000  0.0000  0.0000  0.0000  0.0000 </r>
       </set>
       <set comment="band 5">
        <r>  0.0808  0.0129  0.0342  0.0342  0.0000  0.0000  0.0000  0.0000  0.0000 </r>
        <r>  0.0808  0.0129  0.0342  0.0342  0.0000  0.0000  0.0000  0.0000  0.0000 </r>
       </set>
       <set comment="band 6">
        <r>  0.0078  0.0433  0.0197  0.0197  0.0000  0.0000  0.0000  0.0000  0.0000 </r>
        <r>  0.0078  0.0433  0.0197  0.0197  0.0000  0.0000  0.0000  0.0000  0.0000 </r>
       </set>
       <set comment="band 7">
        <r>  0.0231  0.0476  0.0372  0.0372  0.0000  0.0000  0.0000  0.0000  0.0000 </r>
        <r>  0.0231  0.0476  0.0372  0.0372  0.0000  0.0000  0.0000  0.0000  0.0000 </r>
       </set>
       <set comment="band 8">
        <r>  0.0137  0.0578  0.0086  0.0086  0.0000  0.0000  0.0000  0.0000  0.0000 </r>
        <r>  0.0137  0.0578  0.0086  0.0086  0.0000  0.0000  0.0000  0.0000  0.0000 </r>
       </set>
       <set comment="band 9">
        <r>  0.0200  0.0160  0.0587  0.0587  0.0000  0.0000  0.0000  0.0000  0.0000 </r>
        <r>  0.0200  0.0160  0.0587  0.0587  0.0000  0.0000  0.0000  0.0000  0.0000 </r>
       </set>
       <set comment="band 10">
        <r>  0.0000  0.0093  0.0192  0.0192  0.0000  0.0000  0.0000  0.0000  0.0000 </r>
        <r>  0.0000  0.0093  0.0192  0.0192  0.0000  0.0000  0.0000  0.0000  0.0000 </r>
       </set>
       <set comment="band 11">
        <r>  0.0149  0.0111  0.0549  0.0549  0.0000  0.0000  0.0000  0.0000  0.0000 </r>
        <r>  0.0149  0.0111  0.0549  0.0549  0.0000  0.0000  0.0000  0.0000  0.0000 </r>
       </set>
       <set comment="band 12">
        <r>  0.0437  0.0132  0.0128  0.0128  0.0000  0.0000  0.0000  0.0000  0.0000 </r>
        <r>  0.0437  0.0132  0.0128  0.0128  0.0000  0.0000  0.0000  0.0000  0.0000 </r>
       </set>
      </set>
      <set comment="kpoint 25">
       <set comment="band 1">
        <r>  0.2035  0.0012  0.0231  0.0015  0.0000  0.0000  0.0000  0.0000  0.0000 </r>
        <r>  0.2035  0.0012  0.0231  0.0015  0.0000  0.0000  0.0000  0.0000  0.0000 </r>
       </set>
       <set comment="band 2">
        <r>  0.1823  0.0026  0.0495  0.0136  0.0000  0.0000  0.0000  0.0000  0.0000 </r>
        <r>  0.1823  0.0026  0.0495  0.0136  0.0000  0.0000  0.0000  0.0000  0.0000 </r>
       </set>
       <set comment="band 3">
        <r>  0.0084  0.0634  0.0155  0.0870  0.0000  0.0000  0.0000  0.0000  0.0000 </r>
        <r>  0.0084  0.0634  0.0155  0.0870  0.0000  0.0000  0.0000  0.0000  0.0000 </r>
       </set>
       <set comment="band 4">
        <r>  0.0007  0.0945  0.0286  0.0573  0.0000  0.0000  0.0000  0.0000  0.0000 </r>
        <r>  0.0007  0.0945  0.0286  0.0573  0.0000  0.0000  0.0000  0.0000  0.0000 </r>
       </set>
       <set comment="band 5">
        <r>  0.0368  0.0243  0.0387  0.0210  0.0000  0.0000  0.0000  0.0000  0.0000 </r>
        <r>  0.0368  0.0243  0.0387  0.0210  0.0000  0.0000  0.0000  0.0000  0.0000 </r>
       </set>
       <set comment="band 6">
        <r>  0.0391  0.0214  0.0221  0.0100  0.0000  0.0000  0.0000  0.0000  0.0000 </r>
        <r>  0.0391  0.0214  0.0221  0.0100  0.0000  0.0000  0.0000  0.0000  0.0000 </r>
       </set>
       <set comment="band 7">
        <r>  0.0339  0.0561  0.0204  0.0416  0.0000  0.0000  0.0000  0.0000  0.0000 </r>
        <r>  0.0339  0.0561  0.0204  0.0416  0.0000  0.0000  0.0000  0.0000  0.0000 </r>
       </set>
       <set comment="band 8">
        <r>  0.0026  0.0571  0.0072  0.0963  0.0000  0.0000  0.0000  0.0000  0.0000 </r>
        <r>  0.0026  0.0571  0.0072  0.0963  0.0000  0.0000  0.0000  0.0000  0.0000 </r>
       </set>
       <set comment="band 9">
        <r>  0.0407  0.0050  0.0661  0.0011  0.0000  0.0000  0.0000  0.0000  0.0000 </r>
        <r>  0.0407  0.0050  0.0661  0.0011  0.0000  0.0000  0.0000  0.0000  0.0000 </r>
       </set>
       <set comment="band 10">
        <r>  0.0065  0.0379  0.0554  0.0183  0.0000  0.0000  0.0000  0.0000  0.0000 </r>
        <r>  0.0065  0.0379  0.0554  0.0183  0.0000  0.0000  0.0000  0.0000  0.0000 </r>
       </set>
       <set comment="band 11">
        <r>  0.0231  0.0547  0.0564  0.0470  0.0000  0.0000  0.0000  0.0000  0.0000 </r>
        <r>  0.0231  0.0547  0.0564  0.0470  0.0000  0.0000  0.0000  0.0000  0.0000 </r>
       </set>
       <set comment="band 12">
        <r>  0.0208  0.0029  0.0111  0.0136  0.0000  0.0000  0.0000  0.0000  0.0000 </r>
        <r>  0.0208  0.0029  0.0112  0.0136  0.0000  0.0000  0.0000  0.0000  0.0000 </r>
       </set>
      </set>
      <set comment="kpoint 26">
       <set comment="band 1">
        <r>  0.2095  0.0013  0.0223  0.0070  0.0000  0.0000  0.0000  0.0000  0.0000 </r>
        <r>  0.2095  0.0013  0.0223  0.0070  0.0000  0.0000  0.0000  0.0000  0.0000 </r>
       </set>
       <set comment="band 2">
        <r>  0.1845  0.0045  0.0339  0.0177  0.0000  0.0000  0.0000  0.0000  0.0000 </r>
        <r>  0.1845  0.0045  0.0339  0.0177  0.0000  0.0000  0.0000  0.0000  0.0000 </r>
       </set>
       <set comment="band 3">
        <r>  0.0069  0.0565  0.0433  0.0542  0.0000  0.0000  0.0000  0.0000  0.0000 </r>
        <r>  0.0069  0.0565  0.0433  0.0542  0.0000  0.0000  0.0000  0.0000  0.0000 </r>
       </set>
       <set comment="band 4">
        <r>  0.0017  0.0856  0.0221  0.0682  0.0000  0.0000  0.0000  0.0000  0.0000 </r>
        <r>  0.0017  0.0856  0.0221  0.0682  0.0000  0.0000  0.0000  0.0000  0.0000 </r>
       </set>
       <set comment="band 5">
        <r>  0.0386  0.0294  0.0301  0.0124  0.0000  0.0000  0.0000  0.0000  0.0000 </r>
        <r>  0.0386  0.0294  0.0301  0.0124  0.0000  0.0000  0.0000  0.0000  0.0000 </r>
       </set>
       <set comment="band 6">
        <r>  0.0166  0.0560  0.0106  0.0183  0.0000  0.0000  0.0000  0.0000  0.0000 </r>
        <r>  0.0166  0.0560  0.0106  0.0183  0.0000  0.0000  0.0000  0.0000  0.0000 </r>
       </set>
       <set comment="band 7">
        <r>  0.0443  0.0309  0.0333  0.0445  0.0000  0.0000  0.0000  0.0000  0.0000 </r>
        <r>  0.0443  0.0309  0.0333  0.0445  0.0000  0.0000  0.0000  0.0000  0.0000 </r>
       </set>
       <set comment="band 8">
        <r>  0.0237  0.0514  0.0354  0.0356  0.0000  0.0000  0.0000  0.0000  0.0000 </r>
        <r>  0.0237  0.0514  0.0354  0.0356  0.0000  0.0000  0.0000  0.0000  0.0000 </r>
       </set>
       <set comment="band 9">
        <r>  0.0115  0.0283  0.0441  0.0471  0.0000  0.0000  0.0000  0.0000  0.0000 </r>
        <r>  0.0115  0.0283  0.0441  0.0471  0.0000  0.0000  0.0000  0.0000  0.0000 </r>
       </set>
       <set comment="band 10">
        <r>  0.0066  0.0244  0.0274  0.0505  0.0000  0.0000  0.0000  0.0000  0.0000 </r>
        <r>  0.0066  0.0244  0.0274  0.0505  0.0000  0.0000  0.0000  0.0000  0.0000 </r>
       </set>
       <set comment="band 11">
        <r>  0.0216  0.0090  0.0681  0.0310  0.0000  0.0000  0.0000  0.0000  0.0000 </r>
        <r>  0.0216  0.0090  0.0681  0.0310  0.0000  0.0000  0.0000  0.0000  0.0000 </r>
       </set>
       <set comment="band 12">
        <r>  0.0072  0.0115  0.0292  0.0370  0.0000  0.0000  0.0000  0.0000  0.0000 </r>
        <r>  0.0072  0.0115  0.0292  0.0370  0.0000  0.0000  0.0000  0.0000  0.0000 </r>
       </set>
      </set>
      <set comment="kpoint 27">
       <set comment="band 1">
        <r>  0.2104  0.0036  0.0077  0.0158  0.0000  0.0000  0.0000  0.0000  0.0000 </r>
        <r>  0.2104  0.0036  0.0077  0.0158  0.0000  0.0000  0.0000  0.0000  0.0000 </r>
       </set>
       <set comment="band 2">
        <r>  0.1799  0.0059  0.0346  0.0209  0.0000  0.0000  0.0000  0.0000  0.0000 </r>
        <r>  0.1799  0.0059  0.0346  0.0209  0.0000  0.0000  0.0000  0.0000  0.0000 </r>
       </set>
       <set comment="band 3">
        <r>  0.0060  0.0516  0.0660  0.0342  0.0000  0.0000  0.0000  0.0000  0.0000 </r>
        <r>  0.0060  0.0516  0.0660  0.0342  0.0000  0.0000  0.0000  0.0000  0.0000 </r>
       </set>
       <set comment="band 4">
        <r>  0.0034  0.0874  0.0193  0.0730  0.0000  0.0000  0.0000  0.0000  0.0000 </r>
        <r>  0.0034  0.0874  0.0193  0.0730  0.0000  0.0000  0.0000  0.0000  0.0000 </r>
       </set>
       <set comment="band 5">
        <r>  0.0388  0.0356  0.0331  0.0086  0.0000  0.0000  0.0000  0.0000  0.0000 </r>
        <r>  0.0388  0.0356  0.0331  0.0086  0.0000  0.0000  0.0000  0.0000  0.0000 </r>
       </set>
       <set comment="band 6">
        <r>  0.0181  0.0522  0.0279  0.0274  0.0000  0.0000  0.0000  0.0000  0.0000 </r>
        <r>  0.0181  0.0522  0.0279  0.0274  0.0000  0.0000  0.0000  0.0000  0.0000 </r>
       </set>
       <set comment="band 7">
        <r>  0.0437  0.0357  0.0262  0.0214  0.0000  0.0000  0.0000  0.0000  0.0000 </r>
        <r>  0.0437  0.0357  0.0262  0.0214  0.0000  0.0000  0.0000  0.0000  0.0000 </r>
       </set>
       <set comment="band 8">
        <r>  0.0187  0.0239  0.0167  0.0624  0.0000  0.0000  0.0000  0.0000  0.0000 </r>
        <r>  0.0187  0.0239  0.0167  0.0624  0.0000  0.0000  0.0000  0.0000  0.0000 </r>
       </set>
       <set comment="band 9">
        <r>  0.0124  0.0505  0.0855  0.0164  0.0000  0.0000  0.0000  0.0000  0.0000 </r>
        <r>  0.0124  0.0505  0.0855  0.0164  0.0000  0.0000  0.0000  0.0000  0.0000 </r>
       </set>
       <set comment="band 10">
        <r>  0.0285  0.0102  0.0067  0.0630  0.0000  0.0000  0.0000  0.0000  0.0000 </r>
        <r>  0.0285  0.0102  0.0067  0.0630  0.0000  0.0000  0.0000  0.0000  0.0000 </r>
       </set>
       <set comment="band 11">
        <r>  0.0116  0.0138  0.0462  0.0001  0.0000  0.0000  0.0000  0.0000  0.0000 </r>
        <r>  0.0116  0.0138  0.0461  0.0001  0.0000  0.0000  0.0000  0.0000  0.0000 </r>
       </set>
       <set comment="band 12">
        <r>  0.0063  0.0223  0.0627  0.0160  0.0000  0.0000  0.0000  0.0000  0.0000 </r>
        <r>  0.0062  0.0223  0.0633  0.0155  0.0000  0.0000  0.0000  0.0000  0.0000 </r>
       </set>
      </set>
      <set comment="kpoint 28">
       <set comment="band 1">
        <r>  0.3963  0.0001  0.0000  0.0000  0.0000  0.0000  0.0000  0.0000  0.0000 </r>
        <r>  0.0000  0.0000  0.0758  0.0093  0.0000  0.0000  0.0000  0.0000  0.0000 </r>
       </set>
       <set comment="band 2">
        <r>  0.0000  0.0000  0.0758  0.0093  0.0000  0.0000  0.0000  0.0000  0.0000 </r>
        <r>  0.3963  0.0001  0.0000  0.0000  0.0000  0.0000  0.0000  0.0000  0.0000 </r>
       </set>
       <set comment="band 3">
        <r>  0.0002  0.0059  0.0320  0.1453  0.0000  0.0000  0.0000  0.0000  0.0000 </r>
        <r>  0.0048  0.1509  0.0012  0.0057  0.0000  0.0000  0.0000  0.0000  0.0000 </r>
       </set>
       <set comment="band 4">
        <r>  0.0048  0.1509  0.0012  0.0057  0.0000  0.0000  0.0000  0.0000  0.0000 </r>
        <r>  0.0002  0.0059  0.0320  0.1453  0.0000  0.0000  0.0000  0.0000  0.0000 </r>
       </set>
       <set comment="band 5">
        <r>  0.0784  0.0491  0.0005  0.0003  0.0000  0.0000  0.0000  0.0000  0.0000 </r>
        <r>  0.0008  0.0005  0.0520  0.0300  0.0000  0.0000  0.0000  0.0000  0.0000 </r>
       </set>
       <set comment="band 6">
        <r>  0.0008  0.0005  0.0520  0.0300  0.0000  0.0000  0.0000  0.0000  0.0000 </r>
        <r>  0.0784  0.0491  0.0005  0.0003  0.0000  0.0000  0.0000  0.0000  0.0000 </r>
       </set>
       <set comment="band 7">
        <r>  0.0016  0.0047  0.0541  0.0694  0.0000  0.0000  0.0000  0.0000  0.0000 </r>
        <r>  0.0403  0.1190  0.0021  0.0028  0.0000  0.0000  0.0000  0.0000  0.0000 </r>
       </set>
       <set comment="band 8">
        <r>  0.0403  0.1190  0.0021  0.0028  0.0000  0.0000  0.0000  0.0000  0.0000 </r>
        <r>  0.0016  0.0047  0.0541  0.0694  0.0000  0.0000  0.0000  0.0000  0.0000 </r>
       </set>
       <set comment="band 9">
        <r>  0.0001  0.0049  0.0394  0.1295  0.0000  0.0000  0.0000  0.0000  0.0000 </r>
        <r>  0.0010  0.0588  0.0033  0.0109  0.0000  0.0000  0.0000  0.0000  0.0000 </r>
       </set>
       <set comment="band 10">
        <r>  0.0010  0.0588  0.0033  0.0109  0.0000  0.0000  0.0000  0.0000  0.0000 </r>
        <r>  0.0001  0.0049  0.0394  0.1295  0.0000  0.0000  0.0000  0.0000  0.0000 </r>
       </set>
       <set comment="band 11">
        <r>  0.0000  0.0000  0.1568  0.0294  0.0000  0.0000  0.0000  0.0000  0.0000 </r>
        <r>  0.0489  0.0001  0.0000  0.0000  0.0000  0.0000  0.0000  0.0000  0.0000 </r>
       </set>
       <set comment="band 12">
        <r>  0.0489  0.0001  0.0000  0.0000  0.0000  0.0000  0.0000  0.0000  0.0000 </r>
        <r>  0.0000  0.0000  0.1568  0.0294  0.0000  0.0000  0.0000  0.0000  0.0000 </r>
       </set>
      </set>
      <set comment="kpoint 29">
       <set comment="band 1">
        <r>  0.4085  0.0000  0.0000  0.0000  0.0000  0.0000  0.0000  0.0000  0.0000 </r>
        <r>  0.0000  0.0000  0.0409  0.0409  0.0000  0.0000  0.0000  0.0000  0.0000 </r>
       </set>
       <set comment="band 2">
        <r>  0.0000  0.0000  0.0409  0.0409  0.0000  0.0000  0.0000  0.0000  0.0000 </r>
        <r>  0.4085  0.0000  0.0000  0.0000  0.0000  0.0000  0.0000  0.0000  0.0000 </r>
       </set>
       <set comment="band 3">
        <r>  0.0000  0.0014  0.0899  0.0899  0.0000  0.0000  0.0000  0.0000  0.0000 </r>
        <r>  0.0000  0.1365  0.0010  0.0010  0.0000  0.0000  0.0000  0.0000  0.0000 </r>
       </set>
       <set comment="band 4">
        <r>  0.0000  0.1365  0.0010  0.0010  0.0000  0.0000  0.0000  0.0000  0.0000 </r>
        <r>  0.0000  0.0014  0.0899  0.0899  0.0000  0.0000  0.0000  0.0000  0.0000 </r>
       </set>
       <set comment="band 5">
        <r>  0.0000  0.1708  0.0000  0.0000  0.0000  0.0000  0.0000  0.0000  0.0000 </r>
        <r>  0.0000  0.0001  0.0001  0.0001  0.0000  0.0000  0.0000  0.0000  0.0000 </r>
       </set>
       <set comment="band 6">
        <r>  0.0000  0.0001  0.0001  0.0001  0.0000  0.0000  0.0000  0.0000  0.0000 </r>
        <r>  0.0000  0.1708  0.0000  0.0000  0.0000  0.0000  0.0000  0.0000  0.0000 </r>
       </set>
       <set comment="band 7">
        <r>  0.0001  0.0000  0.1053  0.1053  0.0000  0.0000  0.0000  0.0000  0.0000 </r>
        <r>  0.1230  0.0000  0.0001  0.0001  0.0000  0.0000  0.0000  0.0000  0.0000 </r>
       </set>
       <set comment="band 8">
        <r>  0.1230  0.0000  0.0001  0.0001  0.0000  0.0000  0.0000  0.0000  0.0000 </r>
        <r>  0.0001  0.0000  0.1053  0.1053  0.0000  0.0000  0.0000  0.0000  0.0000 </r>
       </set>
       <set comment="band 9">
        <r>  0.0000  0.0067  0.0882  0.0882  0.0000  0.0000  0.0000  0.0000  0.0000 </r>
        <r>  0.0000  0.0710  0.0083  0.0083  0.0000  0.0000  0.0000  0.0000  0.0000 </r>
       </set>
       <set comment="band 10">
        <r>  0.0000  0.0710  0.0083  0.0083  0.0000  0.0000  0.0000  0.0000  0.0000 </r>
        <r>  0.0000  0.0067  0.0882  0.0882  0.0000  0.0000  0.0000  0.0000  0.0000 </r>
       </set>
       <set comment="band 11">
        <r>  0.0000  0.0000  0.1033  0.1033  0.0000  0.0000  0.0000  0.0000  0.0000 </r>
        <r>  0.0508  0.0000  0.0000  0.0000  0.0000  0.0000  0.0000  0.0000  0.0000 </r>
       </set>
       <set comment="band 12">
        <r>  0.0508  0.0000  0.0000  0.0000  0.0000  0.0000  0.0000  0.0000  0.0000 </r>
        <r>  0.0000  0.0000  0.1033  0.1033  0.0000  0.0000  0.0000  0.0000  0.0000 </r>
       </set>
      </set>
     </set>
    </set>
   </array>
  </projected>
 </calculation>
 <structure name="finalpos" >
  <crystal>
   <varray name="basis" >
    <v>       0.00000000       2.73425700       2.73425700 </v>
    <v>       2.73425700       0.00000000       2.73425700 </v>
    <v>       2.73425700       2.73425700       0.00000000 </v>
   </varray>
   <i name="volume">     40.88349297 </i>
   <varray name="rec_basis" >
    <v>      -0.18286503       0.18286503       0.18286503 </v>
    <v>       0.18286503      -0.18286503       0.18286503 </v>
    <v>       0.18286503       0.18286503      -0.18286503 </v>
   </varray>
  </crystal>
  <varray name="positions" >
   <v>       0.00000000       0.00000000       0.00000000 </v>
   <v>       0.25000000       0.25000000       0.25000000 </v>
  </varray>
 </structure>
</modeling>
